/*--------------------------------*- C++ -*----------------------------------*\
| =========                 |                                                 |
| \\      /  F ield         | OpenFOAM: The Open Source CFD Toolbox           |
|  \\    /   O peration     | Version:  5.x                                   |
|   \\  /    A nd           | Web:      www.OpenFOAM.org                      |
|    \\/     M anipulation  |                                                 |
\*---------------------------------------------------------------------------*/
FoamFile
{
    version     2.0;
    format      ascii;
    class       volScalarField;
    location    "0.0002";
    object      Cy;
}
// * * * * * * * * * * * * * * * * * * * * * * * * * * * * * * * * * * * * * //

dimensions      [0 1 0 0 0 0 0];

internalField   nonuniform List<scalar> 
12225
(
0.00015942
0.00015942
0.00015942
0.00015942
0.00015942
0.00015942
0.00015942
0.00015942
0.00015942
0.00015942
0.00015942
0.00015942
0.00015942
0.00015942
0.00015942
0.00015942
0.00015942
0.00015942
0.000489703
0.000489703
0.000489703
0.000489703
0.000489703
0.000489703
0.000489703
0.000489703
0.000489703
0.000489703
0.000489703
0.000489703
0.000489703
0.000489703
0.000489703
0.000489703
0.000489703
0.000489703
0.000843691
0.000843691
0.000843691
0.000843691
0.000843691
0.000843691
0.000843691
0.000843691
0.000843691
0.000843691
0.000843691
0.000843691
0.000843691
0.000843691
0.000843691
0.000843691
0.000843691
0.000843691
0.00122309
0.00122309
0.00122309
0.00122309
0.00122309
0.00122309
0.00122309
0.00122309
0.00122309
0.00122309
0.00122309
0.00122309
0.00122309
0.00122309
0.00122309
0.00122309
0.00122309
0.00122309
0.00162971
0.00162971
0.00162971
0.00162971
0.00162971
0.00162971
0.00162971
0.00162971
0.00162971
0.00162971
0.00162971
0.00162971
0.00162971
0.00162971
0.00162971
0.00162971
0.00162971
0.00162971
0.00206552
0.00206552
0.00206552
0.00206552
0.00206552
0.00206552
0.00206552
0.00206552
0.00206552
0.00206552
0.00206552
0.00206552
0.00206552
0.00206552
0.00206552
0.00206552
0.00206552
0.00206552
0.00253261
0.00253261
0.00253261
0.00253261
0.00253261
0.00253261
0.00253261
0.00253261
0.00253261
0.00253261
0.00253261
0.00253261
0.00253261
0.00253261
0.00253261
0.00253261
0.00253261
0.00253261
0.00303323
0.00303323
0.00303323
0.00303323
0.00303323
0.00303323
0.00303323
0.00303323
0.00303323
0.00303323
0.00303323
0.00303323
0.00303323
0.00303323
0.00303323
0.00303323
0.00303323
0.00303323
0.00356977
0.00356977
0.00356977
0.00356977
0.00356977
0.00356977
0.00356977
0.00356977
0.00356977
0.00356977
0.00356977
0.00356977
0.00356977
0.00356977
0.00356977
0.00356977
0.00356977
0.00356977
0.00414483
0.00414483
0.00414483
0.00414483
0.00414483
0.00414483
0.00414483
0.00414483
0.00414483
0.00414483
0.00414483
0.00414483
0.00414483
0.00414483
0.00414483
0.00414483
0.00414483
0.00414483
0.00476116
0.00476116
0.00476116
0.00476116
0.00476116
0.00476116
0.00476116
0.00476116
0.00476116
0.00476116
0.00476116
0.00476116
0.00476116
0.00476116
0.00476116
0.00476116
0.00476116
0.00476116
0.00536704
0.00536704
0.00536704
0.00536704
0.00536704
0.00536704
0.00536704
0.00536704
0.00536704
0.00536704
0.00536704
0.00536704
0.00536704
0.00536704
0.00536704
0.00536704
0.00536704
0.00536704
0.00600399
0.00600399
0.00600399
0.00600399
0.00600399
0.00600399
0.00600399
0.00600399
0.00600399
0.00600399
0.00600399
0.00600399
0.00600399
0.00600399
0.00600399
0.00600399
0.00600399
0.00600399
0.00678044
0.00678044
0.00678044
0.00678044
0.00678044
0.00678044
0.00678044
0.00678044
0.00678044
0.00678044
0.00678044
0.00678044
0.00678044
0.00678044
0.00678044
0.00678044
0.00678044
0.00678044
0.00772694
0.00772694
0.00772694
0.00772694
0.00772694
0.00772694
0.00772694
0.00772694
0.00772694
0.00772694
0.00772694
0.00772694
0.00772694
0.00772694
0.00772694
0.00772694
0.00772694
0.00772694
0.00888075
0.00888075
0.00888075
0.00888075
0.00888075
0.00888075
0.00888075
0.00888075
0.00888075
0.00888075
0.00888075
0.00888075
0.00888075
0.00888075
0.00888075
0.00888075
0.00888075
0.00888075
0.0102872
0.0102872
0.0102872
0.0102872
0.0102872
0.0102872
0.0102872
0.0102872
0.0102872
0.0102872
0.0102872
0.0102872
0.0102872
0.0102872
0.0102872
0.0102872
0.0102872
0.0102872
0.0120018
0.0120018
0.0120018
0.0120018
0.0120018
0.0120018
0.0120018
0.0120018
0.0120018
0.0120018
0.0120018
0.0120018
0.0120018
0.0120018
0.0120018
0.0120018
0.0120018
0.0120018
0.0140918
0.0140918
0.0140918
0.0140918
0.0140918
0.0140918
0.0140918
0.0140918
0.0140918
0.0140918
0.0140918
0.0140918
0.0140918
0.0140918
0.0140918
0.0140918
0.0140918
0.0140918
0.0160805
0.0160805
0.0160805
0.0160805
0.0160805
0.0160805
0.0160805
0.0160805
0.0160805
0.0160805
0.0160805
0.0160805
0.0160805
0.0160805
0.0160805
0.0160805
0.0160805
0.0160805
0.0176528
0.0176528
0.0176528
0.0176528
0.0176528
0.0176528
0.0176528
0.0176528
0.0176528
0.0176528
0.0176528
0.0176528
0.0176528
0.0176528
0.0176528
0.0176528
0.0176528
0.0176528
0.0190215
0.0190215
0.0190215
0.0190215
0.0190215
0.0190215
0.0190215
0.0190215
0.0190215
0.0190215
0.0190215
0.0190215
0.0190215
0.0190215
0.0190215
0.0190215
0.0190215
0.0190215
0.0202131
0.0202131
0.0202131
0.0202131
0.0202131
0.0202131
0.0202131
0.0202131
0.0202131
0.0202131
0.0202131
0.0202131
0.0202131
0.0202131
0.0202131
0.0202131
0.0202131
0.0202131
0.0212504
0.0212504
0.0212504
0.0212504
0.0212504
0.0212504
0.0212504
0.0212504
0.0212504
0.0212504
0.0212504
0.0212504
0.0212504
0.0212504
0.0212504
0.0212504
0.0212504
0.0212504
0.0221534
0.0221534
0.0221534
0.0221534
0.0221534
0.0221534
0.0221534
0.0221534
0.0221534
0.0221534
0.0221534
0.0221534
0.0221534
0.0221534
0.0221534
0.0221534
0.0221534
0.0221534
0.0229396
0.0229396
0.0229396
0.0229396
0.0229396
0.0229396
0.0229396
0.0229396
0.0229396
0.0229396
0.0229396
0.0229396
0.0229396
0.0229396
0.0229396
0.0229396
0.0229396
0.0229396
0.0236239
0.0236239
0.0236239
0.0236239
0.0236239
0.0236239
0.0236239
0.0236239
0.0236239
0.0236239
0.0236239
0.0236239
0.0236239
0.0236239
0.0236239
0.0236239
0.0236239
0.0236239
0.0242197
0.0242197
0.0242197
0.0242197
0.0242197
0.0242197
0.0242197
0.0242197
0.0242197
0.0242197
0.0242197
0.0242197
0.0242197
0.0242197
0.0242197
0.0242197
0.0242197
0.0242197
0.0247384
0.0247384
0.0247384
0.0247384
0.0247384
0.0247384
0.0247384
0.0247384
0.0247384
0.0247384
0.0247384
0.0247384
0.0247384
0.0247384
0.0247384
0.0247384
0.0247384
0.0247384
0.0251899
0.0251899
0.0251899
0.0251899
0.0251899
0.0251899
0.0251899
0.0251899
0.0251899
0.0251899
0.0251899
0.0251899
0.0251899
0.0251899
0.0251899
0.0251899
0.0251899
0.0251899
-0.0248357
-0.0248359
-0.0248362
-0.0248364
-0.0248367
-0.0248369
-0.0248372
-0.0248374
-0.0248377
-0.0248379
-0.0248382
-0.0248384
-0.0248387
-0.024839
-0.0248392
-0.0248395
-0.0248398
-0.0248401
-0.0248403
-0.0248406
-0.0248409
-0.0248412
-0.0248415
-0.0248418
-0.024842
-0.0248423
-0.0248426
-0.0248429
-0.0248432
-0.0248435
-0.0248438
-0.0248441
-0.0248444
-0.0248447
-0.0248451
-0.0248454
-0.0248457
-0.024846
-0.0248463
-0.0248467
-0.024847
-0.0248473
-0.0248477
-0.024848
-0.0248483
-0.0248487
-0.024849
-0.0248494
-0.0248497
-0.0248501
-0.0248504
-0.0248508
-0.0248511
-0.0248515
-0.0248519
-0.0248522
-0.0248526
-0.024853
-0.0248533
-0.0248537
-0.0248541
-0.0248545
-0.0248549
-0.0248553
-0.0248557
-0.0248561
-0.0248565
-0.0248569
-0.0248573
-0.0248577
-0.0248581
-0.0248585
-0.0248589
-0.0248594
-0.0248598
-0.0248602
-0.0248606
-0.0248611
-0.0248615
-0.024862
-0.0248624
-0.0248629
-0.0248633
-0.0248638
-0.0248642
-0.0248647
-0.0248652
-0.0248656
-0.0248661
-0.0248666
-0.0248671
-0.0248676
-0.0248681
-0.0248685
-0.024869
-0.0248695
-0.0248701
-0.0248706
-0.0248711
-0.0248716
-0.0248721
-0.0248726
-0.0248732
-0.0248737
-0.0248742
-0.0248748
-0.0248753
-0.0248759
-0.0248764
-0.024877
-0.0248776
-0.0248781
-0.0248787
-0.0248793
-0.0248799
-0.0248804
-0.024881
-0.0248816
-0.0248822
-0.0248828
-0.0248834
-0.024884
-0.0248847
-0.0248853
-0.0248859
-0.0248866
-0.0248872
-0.0248878
-0.0248885
-0.0248891
-0.0248898
-0.0248905
-0.0248911
-0.0248918
-0.0248925
-0.0248932
-0.0248938
-0.0248945
-0.0248952
-0.0248959
-0.0248967
-0.0248974
-0.0248981
-0.0248988
-0.0248996
-0.0249003
-0.024901
-0.0249018
-0.0249025
-0.0249033
-0.0249041
-0.0249049
-0.0249056
-0.0249064
-0.0249072
-0.024908
-0.0249088
-0.0249096
-0.0249104
-0.0249113
-0.0249121
-0.0249129
-0.0249138
-0.0249146
-0.0249155
-0.0249163
-0.0249172
-0.0249181
-0.024919
-0.0249199
-0.0249208
-0.0249217
-0.0249226
-0.0249235
-0.0249244
-0.0249253
-0.0249263
-0.0249272
-0.0249282
-0.0249291
-0.023707
-0.0237078
-0.0237085
-0.0237092
-0.02371
-0.0237107
-0.0237115
-0.0237122
-0.023713
-0.0237138
-0.0237146
-0.0237153
-0.0237161
-0.0237169
-0.0237177
-0.0237185
-0.0237194
-0.0237202
-0.023721
-0.0237218
-0.0237227
-0.0237235
-0.0237244
-0.0237253
-0.0237261
-0.023727
-0.0237279
-0.0237288
-0.0237297
-0.0237306
-0.0237315
-0.0237324
-0.0237333
-0.0237342
-0.0237352
-0.0237361
-0.0237371
-0.023738
-0.023739
-0.02374
-0.023741
-0.023742
-0.023743
-0.023744
-0.023745
-0.023746
-0.023747
-0.0237481
-0.0237491
-0.0237502
-0.0237512
-0.0237523
-0.0237534
-0.0237545
-0.0237556
-0.0237567
-0.0237578
-0.0237589
-0.02376
-0.0237612
-0.0237623
-0.0237635
-0.0237646
-0.0237658
-0.023767
-0.0237682
-0.0237694
-0.0237706
-0.0237718
-0.0237731
-0.0237743
-0.0237755
-0.0237768
-0.0237781
-0.0237794
-0.0237806
-0.0237819
-0.0237833
-0.0237846
-0.0237859
-0.0237872
-0.0237886
-0.02379
-0.0237913
-0.0237927
-0.0237941
-0.0237955
-0.0237969
-0.0237983
-0.0237998
-0.0238012
-0.0238027
-0.0238042
-0.0238056
-0.0238071
-0.0238086
-0.0238102
-0.0238117
-0.0238132
-0.0238148
-0.0238163
-0.0238179
-0.0238195
-0.0238211
-0.0238227
-0.0238243
-0.023826
-0.0238276
-0.0238293
-0.023831
-0.0238327
-0.0238344
-0.0238361
-0.0238378
-0.0238396
-0.0238413
-0.0238431
-0.0238449
-0.0238467
-0.0238485
-0.0238503
-0.0238521
-0.023854
-0.0238559
-0.0238578
-0.0238597
-0.0238616
-0.0238635
-0.0238654
-0.0238674
-0.0238694
-0.0238714
-0.0238734
-0.0238754
-0.0238774
-0.0238795
-0.0238815
-0.0238836
-0.0238857
-0.0238878
-0.02389
-0.0238921
-0.0238943
-0.0238965
-0.0238987
-0.0239009
-0.0239031
-0.0239054
-0.0239076
-0.0239099
-0.0239122
-0.0239146
-0.0239169
-0.0239193
-0.0239216
-0.023924
-0.0239264
-0.0239289
-0.0239313
-0.0239338
-0.0239363
-0.0239388
-0.0239413
-0.0239439
-0.0239464
-0.023949
-0.0239516
-0.0239543
-0.0239569
-0.0239596
-0.0239623
-0.023965
-0.0239677
-0.0239705
-0.0239732
-0.023976
-0.0239789
-0.0239817
-0.0239846
-0.0239874
-0.0225784
-0.0225796
-0.0225808
-0.022582
-0.0225833
-0.0225845
-0.0225858
-0.0225871
-0.0225883
-0.0225896
-0.0225909
-0.0225922
-0.0225936
-0.0225949
-0.0225962
-0.0225976
-0.0225989
-0.0226003
-0.0226017
-0.0226031
-0.0226045
-0.0226059
-0.0226073
-0.0226088
-0.0226102
-0.0226117
-0.0226131
-0.0226146
-0.0226161
-0.0226176
-0.0226191
-0.0226207
-0.0226222
-0.0226237
-0.0226253
-0.0226269
-0.0226285
-0.0226301
-0.0226317
-0.0226333
-0.022635
-0.0226366
-0.0226383
-0.0226399
-0.0226416
-0.0226433
-0.0226451
-0.0226468
-0.0226485
-0.0226503
-0.0226521
-0.0226538
-0.0226556
-0.0226574
-0.0226593
-0.0226611
-0.022663
-0.0226648
-0.0226667
-0.0226686
-0.0226705
-0.0226725
-0.0226744
-0.0226764
-0.0226783
-0.0226803
-0.0226823
-0.0226843
-0.0226864
-0.0226884
-0.0226905
-0.0226926
-0.0226947
-0.0226968
-0.0226989
-0.0227011
-0.0227032
-0.0227054
-0.0227076
-0.0227098
-0.0227121
-0.0227143
-0.0227166
-0.0227189
-0.0227212
-0.0227235
-0.0227258
-0.0227282
-0.0227306
-0.022733
-0.0227354
-0.0227378
-0.0227403
-0.0227427
-0.0227452
-0.0227477
-0.0227503
-0.0227528
-0.0227554
-0.022758
-0.0227606
-0.0227632
-0.0227658
-0.0227685
-0.0227712
-0.0227739
-0.0227766
-0.0227794
-0.0227822
-0.022785
-0.0227878
-0.0227906
-0.0227935
-0.0227964
-0.0227993
-0.0228022
-0.0228051
-0.0228081
-0.0228111
-0.0228141
-0.0228172
-0.0228202
-0.0228233
-0.0228265
-0.0228296
-0.0228328
-0.0228359
-0.0228392
-0.0228424
-0.0228457
-0.022849
-0.0228523
-0.0228556
-0.022859
-0.0228624
-0.0228658
-0.0228692
-0.0228727
-0.0228762
-0.0228797
-0.0228833
-0.0228869
-0.0228905
-0.0228941
-0.0228978
-0.0229015
-0.0229052
-0.022909
-0.0229127
-0.0229165
-0.0229204
-0.0229243
-0.0229282
-0.0229321
-0.022936
-0.02294
-0.0229441
-0.0229481
-0.0229522
-0.0229563
-0.0229605
-0.0229646
-0.0229689
-0.0229731
-0.0229774
-0.0229817
-0.0229861
-0.0229904
-0.0229948
-0.0229993
-0.0230038
-0.0230083
-0.0230129
-0.0230174
-0.0230221
-0.0230267
-0.0230314
-0.0230362
-0.0230409
-0.0230457
-0.0214497
-0.0214514
-0.0214531
-0.0214549
-0.0214566
-0.0214583
-0.0214601
-0.0214619
-0.0214637
-0.0214655
-0.0214673
-0.0214691
-0.021471
-0.0214728
-0.0214747
-0.0214766
-0.0214785
-0.0214804
-0.0214824
-0.0214843
-0.0214863
-0.0214883
-0.0214902
-0.0214923
-0.0214943
-0.0214963
-0.0214984
-0.0215005
-0.0215025
-0.0215047
-0.0215068
-0.0215089
-0.0215111
-0.0215132
-0.0215154
-0.0215176
-0.0215199
-0.0215221
-0.0215244
-0.0215266
-0.0215289
-0.0215312
-0.0215336
-0.0215359
-0.0215383
-0.0215407
-0.0215431
-0.0215455
-0.0215479
-0.0215504
-0.0215529
-0.0215554
-0.0215579
-0.0215604
-0.021563
-0.0215656
-0.0215682
-0.0215708
-0.0215734
-0.0215761
-0.0215787
-0.0215814
-0.0215842
-0.0215869
-0.0215897
-0.0215924
-0.0215952
-0.0215981
-0.0216009
-0.0216038
-0.0216067
-0.0216096
-0.0216125
-0.0216155
-0.0216185
-0.0216215
-0.0216245
-0.0216276
-0.0216307
-0.0216338
-0.0216369
-0.02164
-0.0216432
-0.0216464
-0.0216496
-0.0216529
-0.0216562
-0.0216595
-0.0216628
-0.0216661
-0.0216695
-0.0216729
-0.0216764
-0.0216798
-0.0216833
-0.0216868
-0.0216904
-0.0216939
-0.0216975
-0.0217011
-0.0217048
-0.0217085
-0.0217122
-0.0217159
-0.0217197
-0.0217235
-0.0217273
-0.0217311
-0.021735
-0.0217389
-0.0217429
-0.0217469
-0.0217509
-0.0217549
-0.021759
-0.0217631
-0.0217672
-0.0217714
-0.0217756
-0.0217798
-0.0217841
-0.0217883
-0.0217927
-0.021797
-0.0218014
-0.0218059
-0.0218103
-0.0218148
-0.0218194
-0.0218239
-0.0218285
-0.0218332
-0.0218379
-0.0218426
-0.0218473
-0.0218521
-0.0218569
-0.0218618
-0.0218667
-0.0218716
-0.0218766
-0.0218816
-0.0218867
-0.0218918
-0.0218969
-0.0219021
-0.0219073
-0.0219125
-0.0219178
-0.0219232
-0.0219285
-0.021934
-0.0219394
-0.0219449
-0.0219505
-0.0219561
-0.0219617
-0.0219674
-0.0219731
-0.0219788
-0.0219847
-0.0219905
-0.0219964
-0.0220024
-0.0220083
-0.0220144
-0.0220205
-0.0220266
-0.0220328
-0.022039
-0.0220453
-0.0220516
-0.022058
-0.0220644
-0.0220709
-0.0220774
-0.022084
-0.0220906
-0.0220973
-0.022104
-0.0203211
-0.0203233
-0.0203255
-0.0203277
-0.0203299
-0.0203322
-0.0203344
-0.0203367
-0.020339
-0.0203413
-0.0203437
-0.020346
-0.0203484
-0.0203508
-0.0203532
-0.0203556
-0.0203581
-0.0203605
-0.020363
-0.0203655
-0.0203681
-0.0203706
-0.0203732
-0.0203758
-0.0203784
-0.020381
-0.0203836
-0.0203863
-0.020389
-0.0203917
-0.0203944
-0.0203972
-0.0203999
-0.0204027
-0.0204056
-0.0204084
-0.0204113
-0.0204141
-0.020417
-0.02042
-0.0204229
-0.0204259
-0.0204289
-0.0204319
-0.0204349
-0.020438
-0.0204411
-0.0204442
-0.0204473
-0.0204505
-0.0204537
-0.0204569
-0.0204601
-0.0204634
-0.0204667
-0.02047
-0.0204733
-0.0204767
-0.0204801
-0.0204835
-0.020487
-0.0204904
-0.0204939
-0.0204974
-0.020501
-0.0205046
-0.0205082
-0.0205118
-0.0205155
-0.0205192
-0.0205229
-0.0205266
-0.0205304
-0.0205342
-0.0205381
-0.0205419
-0.0205458
-0.0205498
-0.0205537
-0.0205577
-0.0205617
-0.0205658
-0.0205699
-0.020574
-0.0205781
-0.0205823
-0.0205865
-0.0205907
-0.020595
-0.0205993
-0.0206037
-0.0206081
-0.0206125
-0.0206169
-0.0206214
-0.0206259
-0.0206305
-0.020635
-0.0206397
-0.0206443
-0.020649
-0.0206537
-0.0206585
-0.0206633
-0.0206681
-0.020673
-0.0206779
-0.0206829
-0.0206879
-0.0206929
-0.020698
-0.0207031
-0.0207083
-0.0207134
-0.0207187
-0.0207239
-0.0207293
-0.0207346
-0.02074
-0.0207454
-0.0207509
-0.0207564
-0.020762
-0.0207676
-0.0207733
-0.020779
-0.0207847
-0.0207905
-0.0207963
-0.0208022
-0.0208081
-0.0208141
-0.0208201
-0.0208262
-0.0208323
-0.0208384
-0.0208446
-0.0208509
-0.0208572
-0.0208635
-0.0208699
-0.0208764
-0.0208829
-0.0208894
-0.020896
-0.0209027
-0.0209094
-0.0209161
-0.0209229
-0.0209298
-0.0209367
-0.0209437
-0.0209507
-0.0209578
-0.0209649
-0.0209721
-0.0209793
-0.0209866
-0.020994
-0.0210014
-0.0210088
-0.0210164
-0.021024
-0.0210316
-0.0210393
-0.0210471
-0.0210549
-0.0210628
-0.0210707
-0.0210787
-0.0210868
-0.0210949
-0.0211031
-0.0211114
-0.0211197
-0.0211281
-0.0211366
-0.0211451
-0.0211537
-0.0211623
-0.0191924
-0.0191951
-0.0191978
-0.0192005
-0.0192032
-0.019206
-0.0192087
-0.0192115
-0.0192143
-0.0192172
-0.01922
-0.0192229
-0.0192258
-0.0192287
-0.0192317
-0.0192347
-0.0192377
-0.0192407
-0.0192437
-0.0192468
-0.0192499
-0.019253
-0.0192561
-0.0192593
-0.0192624
-0.0192657
-0.0192689
-0.0192721
-0.0192754
-0.0192787
-0.0192821
-0.0192854
-0.0192888
-0.0192922
-0.0192957
-0.0192991
-0.0193026
-0.0193062
-0.0193097
-0.0193133
-0.0193169
-0.0193205
-0.0193242
-0.0193279
-0.0193316
-0.0193353
-0.0193391
-0.0193429
-0.0193468
-0.0193506
-0.0193545
-0.0193584
-0.0193624
-0.0193664
-0.0193704
-0.0193744
-0.0193785
-0.0193826
-0.0193868
-0.019391
-0.0193952
-0.0193994
-0.0194037
-0.019408
-0.0194123
-0.0194167
-0.0194211
-0.0194255
-0.01943
-0.0194345
-0.0194391
-0.0194437
-0.0194483
-0.0194529
-0.0194576
-0.0194624
-0.0194671
-0.0194719
-0.0194768
-0.0194816
-0.0194865
-0.0194915
-0.0194965
-0.0195015
-0.0195066
-0.0195117
-0.0195168
-0.019522
-0.0195272
-0.0195325
-0.0195378
-0.0195432
-0.0195486
-0.019554
-0.0195595
-0.019565
-0.0195706
-0.0195762
-0.0195818
-0.0195875
-0.0195932
-0.019599
-0.0196048
-0.0196107
-0.0196166
-0.0196226
-0.0196286
-0.0196347
-0.0196408
-0.0196469
-0.0196531
-0.0196594
-0.0196656
-0.019672
-0.0196784
-0.0196848
-0.0196913
-0.0196979
-0.0197045
-0.0197111
-0.0197178
-0.0197245
-0.0197313
-0.0197382
-0.0197451
-0.0197521
-0.0197591
-0.0197662
-0.0197733
-0.0197805
-0.0197877
-0.019795
-0.0198023
-0.0198097
-0.0198172
-0.0198247
-0.0198323
-0.01984
-0.0198477
-0.0198554
-0.0198632
-0.0198711
-0.0198791
-0.0198871
-0.0198951
-0.0199032
-0.0199114
-0.0199197
-0.019928
-0.0199364
-0.0199448
-0.0199534
-0.0199619
-0.0199706
-0.0199793
-0.0199881
-0.0199969
-0.0200059
-0.0200148
-0.0200239
-0.020033
-0.0200422
-0.0200515
-0.0200608
-0.0200703
-0.0200797
-0.0200893
-0.020099
-0.0201087
-0.0201185
-0.0201283
-0.0201383
-0.0201483
-0.0201584
-0.0201685
-0.0201788
-0.0201891
-0.0201995
-0.02021
-0.0202206
-0.0180638
-0.0180669
-0.0180701
-0.0180733
-0.0180765
-0.0180798
-0.0180831
-0.0180864
-0.0180897
-0.018093
-0.0180964
-0.0180998
-0.0181032
-0.0181067
-0.0181102
-0.0181137
-0.0181172
-0.0181208
-0.0181244
-0.018128
-0.0181316
-0.0181353
-0.018139
-0.0181428
-0.0181465
-0.0181503
-0.0181541
-0.018158
-0.0181619
-0.0181658
-0.0181697
-0.0181737
-0.0181777
-0.0181817
-0.0181858
-0.0181899
-0.018194
-0.0181982
-0.0182024
-0.0182066
-0.0182109
-0.0182152
-0.0182195
-0.0182239
-0.0182282
-0.0182327
-0.0182371
-0.0182416
-0.0182462
-0.0182507
-0.0182553
-0.01826
-0.0182646
-0.0182694
-0.0182741
-0.0182789
-0.0182837
-0.0182886
-0.0182935
-0.0182984
-0.0183034
-0.0183084
-0.0183134
-0.0183185
-0.0183237
-0.0183288
-0.018334
-0.0183393
-0.0183446
-0.0183499
-0.0183553
-0.0183607
-0.0183662
-0.0183717
-0.0183772
-0.0183828
-0.0183884
-0.0183941
-0.0183998
-0.0184056
-0.0184114
-0.0184172
-0.0184231
-0.0184291
-0.018435
-0.0184411
-0.0184472
-0.0184533
-0.0184595
-0.0184657
-0.018472
-0.0184783
-0.0184847
-0.0184911
-0.0184976
-0.0185041
-0.0185107
-0.0185173
-0.018524
-0.0185307
-0.0185375
-0.0185443
-0.0185512
-0.0185581
-0.0185651
-0.0185722
-0.0185793
-0.0185864
-0.0185936
-0.0186009
-0.0186082
-0.0186156
-0.018623
-0.0186305
-0.0186381
-0.0186457
-0.0186534
-0.0186611
-0.0186689
-0.0186768
-0.0186847
-0.0186926
-0.0187007
-0.0187088
-0.0187169
-0.0187252
-0.0187335
-0.0187418
-0.0187502
-0.0187587
-0.0187673
-0.0187759
-0.0187846
-0.0187933
-0.0188022
-0.018811
-0.01882
-0.018829
-0.0188381
-0.0188473
-0.0188565
-0.0188659
-0.0188752
-0.0188847
-0.0188942
-0.0189038
-0.0189135
-0.0189233
-0.0189331
-0.018943
-0.018953
-0.0189631
-0.0189732
-0.0189834
-0.0189937
-0.0190041
-0.0190146
-0.0190251
-0.0190357
-0.0190464
-0.0190572
-0.0190681
-0.019079
-0.0190901
-0.0191012
-0.0191124
-0.0191237
-0.0191351
-0.0191466
-0.0191582
-0.0191698
-0.0191816
-0.0191934
-0.0192053
-0.0192174
-0.0192295
-0.0192417
-0.019254
-0.0192664
-0.0192789
-0.0169351
-0.0169388
-0.0169424
-0.0169461
-0.0169498
-0.0169536
-0.0169574
-0.0169612
-0.016965
-0.0169689
-0.0169728
-0.0169767
-0.0169807
-0.0169846
-0.0169887
-0.0169927
-0.0169968
-0.0170009
-0.0170051
-0.0170092
-0.0170134
-0.0170177
-0.017022
-0.0170263
-0.0170306
-0.017035
-0.0170394
-0.0170438
-0.0170483
-0.0170528
-0.0170574
-0.017062
-0.0170666
-0.0170712
-0.0170759
-0.0170807
-0.0170854
-0.0170902
-0.0170951
-0.0170999
-0.0171049
-0.0171098
-0.0171148
-0.0171198
-0.0171249
-0.01713
-0.0171352
-0.0171403
-0.0171456
-0.0171508
-0.0171562
-0.0171615
-0.0171669
-0.0171723
-0.0171778
-0.0171833
-0.0171889
-0.0171945
-0.0172002
-0.0172058
-0.0172116
-0.0172174
-0.0172232
-0.0172291
-0.017235
-0.017241
-0.017247
-0.017253
-0.0172591
-0.0172653
-0.0172715
-0.0172777
-0.017284
-0.0172904
-0.0172968
-0.0173032
-0.0173097
-0.0173163
-0.0173228
-0.0173295
-0.0173362
-0.0173429
-0.0173498
-0.0173566
-0.0173635
-0.0173705
-0.0173775
-0.0173846
-0.0173917
-0.0173989
-0.0174061
-0.0174134
-0.0174208
-0.0174282
-0.0174356
-0.0174432
-0.0174508
-0.0174584
-0.0174661
-0.0174739
-0.0174817
-0.0174896
-0.0174975
-0.0175055
-0.0175136
-0.0175217
-0.0175299
-0.0175382
-0.0175465
-0.0175549
-0.0175633
-0.0175718
-0.0175804
-0.0175891
-0.0175978
-0.0176066
-0.0176154
-0.0176244
-0.0176333
-0.0176424
-0.0176515
-0.0176607
-0.01767
-0.0176794
-0.0176888
-0.0176983
-0.0177078
-0.0177175
-0.0177272
-0.017737
-0.0177469
-0.0177568
-0.0177668
-0.0177769
-0.0177871
-0.0177974
-0.0178077
-0.0178181
-0.0178286
-0.0178392
-0.0178499
-0.0178606
-0.0178714
-0.0178823
-0.0178933
-0.0179044
-0.0179156
-0.0179269
-0.0179382
-0.0179496
-0.0179612
-0.0179728
-0.0179845
-0.0179963
-0.0180081
-0.0180201
-0.0180322
-0.0180443
-0.0180566
-0.018069
-0.0180814
-0.0180939
-0.0181066
-0.0181193
-0.0181322
-0.0181451
-0.0181582
-0.0181713
-0.0181845
-0.0181979
-0.0182113
-0.0182249
-0.0182386
-0.0182523
-0.0182662
-0.0182802
-0.0182943
-0.0183085
-0.0183228
-0.0183372
-0.0158065
-0.0158106
-0.0158148
-0.0158189
-0.0158232
-0.0158274
-0.0158317
-0.015836
-0.0158404
-0.0158447
-0.0158491
-0.0158536
-0.0158581
-0.0158626
-0.0158672
-0.0158717
-0.0158764
-0.015881
-0.0158857
-0.0158905
-0.0158952
-0.0159
-0.0159049
-0.0159098
-0.0159147
-0.0159196
-0.0159246
-0.0159297
-0.0159348
-0.0159399
-0.015945
-0.0159502
-0.0159555
-0.0159607
-0.0159661
-0.0159714
-0.0159768
-0.0159823
-0.0159877
-0.0159933
-0.0159988
-0.0160044
-0.0160101
-0.0160158
-0.0160216
-0.0160273
-0.0160332
-0.0160391
-0.016045
-0.016051
-0.016057
-0.016063
-0.0160692
-0.0160753
-0.0160815
-0.0160878
-0.0160941
-0.0161004
-0.0161068
-0.0161133
-0.0161198
-0.0161263
-0.016133
-0.0161396
-0.0161463
-0.0161531
-0.0161599
-0.0161668
-0.0161737
-0.0161806
-0.0161877
-0.0161948
-0.0162019
-0.0162091
-0.0162163
-0.0162236
-0.016231
-0.0162384
-0.0162459
-0.0162534
-0.016261
-0.0162687
-0.0162764
-0.0162842
-0.016292
-0.0162999
-0.0163078
-0.0163158
-0.0163239
-0.0163321
-0.0163403
-0.0163485
-0.0163569
-0.0163653
-0.0163737
-0.0163823
-0.0163909
-0.0163995
-0.0164082
-0.016417
-0.0164259
-0.0164348
-0.0164438
-0.0164529
-0.0164621
-0.0164713
-0.0164806
-0.0164899
-0.0164994
-0.0165089
-0.0165184
-0.0165281
-0.0165378
-0.0165476
-0.0165575
-0.0165675
-0.0165775
-0.0165876
-0.0165978
-0.0166081
-0.0166184
-0.0166288
-0.0166394
-0.01665
-0.0166606
-0.0166714
-0.0166822
-0.0166932
-0.0167042
-0.0167153
-0.0167264
-0.0167377
-0.0167491
-0.0167605
-0.0167721
-0.0167837
-0.0167954
-0.0168072
-0.0168191
-0.0168311
-0.0168432
-0.0168554
-0.0168676
-0.01688
-0.0168925
-0.016905
-0.0169177
-0.0169304
-0.0169433
-0.0169562
-0.0169693
-0.0169825
-0.0169957
-0.0170091
-0.0170226
-0.0170361
-0.0170498
-0.0170636
-0.0170775
-0.0170915
-0.0171056
-0.0171198
-0.0171341
-0.0171486
-0.0171631
-0.0171778
-0.0171926
-0.0172075
-0.0172225
-0.0172376
-0.0172529
-0.0172682
-0.0172837
-0.0172993
-0.017315
-0.0173309
-0.0173468
-0.0173629
-0.0173792
-0.0173955
-0.0146778
-0.0146825
-0.0146871
-0.0146918
-0.0146965
-0.0147012
-0.014706
-0.0147108
-0.0147157
-0.0147206
-0.0147255
-0.0147305
-0.0147355
-0.0147406
-0.0147456
-0.0147508
-0.0147559
-0.0147612
-0.0147664
-0.0147717
-0.014777
-0.0147824
-0.0147878
-0.0147933
-0.0147988
-0.0148043
-0.0148099
-0.0148155
-0.0148212
-0.0148269
-0.0148327
-0.0148385
-0.0148443
-0.0148502
-0.0148562
-0.0148622
-0.0148682
-0.0148743
-0.0148804
-0.0148866
-0.0148928
-0.0148991
-0.0149054
-0.0149118
-0.0149182
-0.0149247
-0.0149312
-0.0149378
-0.0149444
-0.0149511
-0.0149578
-0.0149646
-0.0149714
-0.0149783
-0.0149852
-0.0149922
-0.0149993
-0.0150064
-0.0150135
-0.0150207
-0.015028
-0.0150353
-0.0150427
-0.0150502
-0.0150577
-0.0150652
-0.0150728
-0.0150805
-0.0150882
-0.015096
-0.0151039
-0.0151118
-0.0151198
-0.0151278
-0.0151359
-0.0151441
-0.0151523
-0.0151606
-0.0151689
-0.0151774
-0.0151858
-0.0151944
-0.015203
-0.0152117
-0.0152205
-0.0152293
-0.0152382
-0.0152471
-0.0152562
-0.0152653
-0.0152744
-0.0152837
-0.015293
-0.0153024
-0.0153118
-0.0153214
-0.015331
-0.0153406
-0.0153504
-0.0153602
-0.0153701
-0.0153801
-0.0153902
-0.0154003
-0.0154105
-0.0154208
-0.0154312
-0.0154417
-0.0154522
-0.0154628
-0.0154735
-0.0154843
-0.0154952
-0.0155062
-0.0155172
-0.0155283
-0.0155395
-0.0155509
-0.0155622
-0.0155737
-0.0155853
-0.0155969
-0.0156087
-0.0156205
-0.0156325
-0.0156445
-0.0156566
-0.0156688
-0.0156811
-0.0156935
-0.015706
-0.0157186
-0.0157313
-0.0157441
-0.015757
-0.01577
-0.0157831
-0.0157963
-0.0158096
-0.015823
-0.0158365
-0.0158501
-0.0158638
-0.0158776
-0.0158916
-0.0159056
-0.0159198
-0.015934
-0.0159484
-0.0159629
-0.0159775
-0.0159922
-0.016007
-0.0160219
-0.016037
-0.0160521
-0.0160674
-0.0160828
-0.0160984
-0.016114
-0.0161298
-0.0161457
-0.0161617
-0.0161778
-0.0161941
-0.0162105
-0.016227
-0.0162436
-0.0162604
-0.0162773
-0.0162944
-0.0163115
-0.0163288
-0.0163463
-0.0163638
-0.0163816
-0.0163994
-0.0164174
-0.0164355
-0.0164538
-0.0135492
-0.0135543
-0.0135594
-0.0135646
-0.0135698
-0.013575
-0.0135803
-0.0135857
-0.013591
-0.0135964
-0.0136019
-0.0136074
-0.0136129
-0.0136185
-0.0136241
-0.0136298
-0.0136355
-0.0136413
-0.0136471
-0.0136529
-0.0136588
-0.0136648
-0.0136707
-0.0136768
-0.0136829
-0.013689
-0.0136952
-0.0137014
-0.0137076
-0.013714
-0.0137203
-0.0137267
-0.0137332
-0.0137397
-0.0137463
-0.0137529
-0.0137596
-0.0137663
-0.0137731
-0.0137799
-0.0137868
-0.0137937
-0.0138007
-0.0138078
-0.0138149
-0.013822
-0.0138292
-0.0138365
-0.0138438
-0.0138512
-0.0138586
-0.0138661
-0.0138737
-0.0138813
-0.0138889
-0.0138967
-0.0139045
-0.0139123
-0.0139202
-0.0139282
-0.0139362
-0.0139443
-0.0139525
-0.0139607
-0.013969
-0.0139773
-0.0139857
-0.0139942
-0.0140028
-0.0140114
-0.0140201
-0.0140288
-0.0140376
-0.0140465
-0.0140555
-0.0140645
-0.0140736
-0.0140828
-0.014092
-0.0141013
-0.0141107
-0.0141201
-0.0141297
-0.0141393
-0.0141489
-0.0141587
-0.0141685
-0.0141784
-0.0141884
-0.0141984
-0.0142086
-0.0142188
-0.0142291
-0.0142395
-0.0142499
-0.0142604
-0.0142711
-0.0142818
-0.0142925
-0.0143034
-0.0143144
-0.0143254
-0.0143365
-0.0143477
-0.014359
-0.0143704
-0.0143819
-0.0143934
-0.0144051
-0.0144168
-0.0144287
-0.0144406
-0.0144526
-0.0144647
-0.0144769
-0.0144892
-0.0145016
-0.0145141
-0.0145267
-0.0145394
-0.0145522
-0.014565
-0.014578
-0.0145911
-0.0146043
-0.0146176
-0.014631
-0.0146445
-0.0146581
-0.0146718
-0.0146856
-0.0146995
-0.0147136
-0.0147277
-0.014742
-0.0147563
-0.0147708
-0.0147854
-0.0148001
-0.0148149
-0.0148298
-0.0148448
-0.01486
-0.0148753
-0.0148907
-0.0149062
-0.0149218
-0.0149376
-0.0149535
-0.0149695
-0.0149856
-0.0150019
-0.0150182
-0.0150348
-0.0150514
-0.0150682
-0.0150851
-0.0151021
-0.0151192
-0.0151365
-0.015154
-0.0151715
-0.0151892
-0.0152071
-0.015225
-0.0152432
-0.0152614
-0.0152798
-0.0152984
-0.015317
-0.0153359
-0.0153549
-0.015374
-0.0153933
-0.0154127
-0.0154323
-0.015452
-0.0154719
-0.0154919
-0.0155121
-0.0124206
-0.0124261
-0.0124317
-0.0124374
-0.0124431
-0.0124488
-0.0124546
-0.0124605
-0.0124664
-0.0124723
-0.0124783
-0.0124843
-0.0124903
-0.0124965
-0.0125026
-0.0125088
-0.0125151
-0.0125214
-0.0125277
-0.0125342
-0.0125406
-0.0125471
-0.0125537
-0.0125603
-0.0125669
-0.0125736
-0.0125804
-0.0125872
-0.0125941
-0.012601
-0.012608
-0.012615
-0.0126221
-0.0126292
-0.0126364
-0.0126437
-0.012651
-0.0126583
-0.0126658
-0.0126732
-0.0126808
-0.0126884
-0.012696
-0.0127037
-0.0127115
-0.0127193
-0.0127272
-0.0127352
-0.0127432
-0.0127513
-0.0127594
-0.0127676
-0.0127759
-0.0127842
-0.0127926
-0.0128011
-0.0128096
-0.0128182
-0.0128269
-0.0128356
-0.0128444
-0.0128533
-0.0128622
-0.0128712
-0.0128803
-0.0128895
-0.0128987
-0.012908
-0.0129173
-0.0129268
-0.0129363
-0.0129458
-0.0129555
-0.0129652
-0.012975
-0.0129849
-0.0129949
-0.0130049
-0.013015
-0.0130252
-0.0130355
-0.0130459
-0.0130563
-0.0130668
-0.0130774
-0.0130881
-0.0130988
-0.0131097
-0.0131206
-0.0131316
-0.0131427
-0.0131539
-0.0131652
-0.0131765
-0.013188
-0.0131995
-0.0132112
-0.0132229
-0.0132347
-0.0132466
-0.0132586
-0.0132707
-0.0132828
-0.0132951
-0.0133075
-0.01332
-0.0133325
-0.0133452
-0.0133579
-0.0133708
-0.0133838
-0.0133968
-0.01341
-0.0134233
-0.0134366
-0.0134501
-0.0134637
-0.0134773
-0.0134911
-0.013505
-0.013519
-0.0135331
-0.0135474
-0.0135617
-0.0135761
-0.0135907
-0.0136054
-0.0136201
-0.013635
-0.0136501
-0.0136652
-0.0136804
-0.0136958
-0.0137113
-0.0137269
-0.0137426
-0.0137585
-0.0137745
-0.0137905
-0.0138068
-0.0138231
-0.0138396
-0.0138562
-0.0138729
-0.0138898
-0.0139068
-0.0139239
-0.0139412
-0.0139586
-0.0139761
-0.0139938
-0.0140116
-0.0140295
-0.0140476
-0.0140658
-0.0140842
-0.0141027
-0.0141213
-0.0141401
-0.0141591
-0.0141782
-0.0141974
-0.0142168
-0.0142363
-0.014256
-0.0142758
-0.0142958
-0.014316
-0.0143363