/*--------------------------------*- C++ -*----------------------------------*\
| =========                 |                                                 |
| \\      /  F ield         | OpenFOAM: The Open Source CFD Toolbox           |
|  \\    /   O peration     | Version:  5.x                                   |
|   \\  /    A nd           | Web:      www.OpenFOAM.org                      |
|    \\/     M anipulation  |                                                 |
\*---------------------------------------------------------------------------*/
FoamFile
{
    version     2.0;
    format      ascii;
    class       volScalarField;
    location    "0.0002";
    object      Cz;
}
// * * * * * * * * * * * * * * * * * * * * * * * * * * * * * * * * * * * * * //

dimensions      [0 1 0 0 0 0 0];

internalField   nonuniform List<scalar> 
12225
(
0
0
2.78877e-20
0
0
0
0
0
1.23047e-20
2.4818e-20
0
0
-1.35982e-20
-1.41641e-20
0
0
0
0
-3.18662e-20
0
1.83843e-20
0
-3.81308e-20
0
4.12426e-20
0
-2.30623e-20
3.51862e-20
0
-1.36865e-20
-6.64495e-20
0
0
0
1.49351e-20
-2.48408e-20
0
3.17437e-20
-1.7254e-20
1.64035e-20
0
1.9303e-20
-9.26892e-21
0
0
0
0
0
0
-1.23306e-20
0
0
0
0
0
0
0
0
0
0
0
0
0
0
0
5.6031e-20
0
-1.15048e-20
0
0
0
0
-3.86607e-20
0
0
0
0
0
0
-3.51253e-20
0
-3.79818e-20
3.00013e-20
0
-2.21168e-20
0
0
0
0
0
0
0
0
0
0
0
0
2.50319e-20
0
0
0
-2.91995e-20
-3.0352e-20
4.15679e-20
0
0
0
0
0
0
-2.53755e-20
0
0
0
0
-3.07733e-20
0
0
0
0
0
0
0
0
0
0
0
-1.06907e-20
2.3777e-20
0
0
2.66749e-20
0
2.88133e-20
2.28388e-20
0
0
0
1.82472e-20
0
0
0
0
0
0
0
0
0
2.40511e-20
-2.49894e-20
2.59667e-20
0
0
0
0
0
4.05564e-20
0
0
3.68111e-20
0
3.02346e-20
0
0
0
0
0
1.09555e-20
0
0
0
0
0
-1.54977e-20
0
0
0
0
0
0
0
0
0
0
3.09461e-20
1.02218e-20
0
-1.10903e-20
0
0
1.25333e-20
0
2.87022e-20
0
0
0
0
8.33661e-21
0
0
4.16935e-20
0
0
-3.55684e-20
0
0
0
0
-2.23885e-20
0
0
0
0
0
0
0
0
0
0
0
0
0
0
-2.17171e-20
2.25582e-20
5.78328e-20
0
1.18958e-20
-1.23909e-20
0
0
0
0
0
0
0
0
0
0
-1.67874e-20
0
0
0
0
0
9.75854e-21
0
-4.38565e-20
0
0
0
0
0
-2.28049e-20
0
0
-3.76114e-20
0
2.76213e-20
0
3.69238e-20
0
9.19128e-21
0
-2.65211e-20
2.75621e-20
0
2.9776e-20
0
2.19539e-20
-1.67743e-20
0
0
0
-3.11245e-20
-1.02838e-20
0
0
-3.63714e-20
0
-3.93337e-20
-1.3134e-20
0
-3.00057e-20
0
0
1.76099e-20
1.82801e-20
0
-3.01722e-20
0
1.70568e-20
-1.61982e-20
1.83781e-20
3.66547e-20
0
0
0
0
0
3.51739e-20
0
0
0
2.79273e-20
0
-1.12882e-20
3.67799e-20
0
0
0
4.30286e-20
-3.03397e-20
0
0
0
0
0
0
-3.98638e-20
0
3.27186e-20
0
0
-2.85334e-20
0
0
-3.2901e-20
0
2.42142e-20
-1.33325e-20
-2.61436e-20
0
2.82369e-20
2.23885e-20
0
0
-7.86661e-21
0
-1.707e-20
0
-2.92863e-20
0
0
0
0
0
0
0
0
0
-2.88917e-20
3.00314e-20
-4.11228e-20
0
0
0
0
0
0
0
3.17757e-20
0
0
0
-1.93219e-20
2.93421e-20
4.01654e-20
0
0
-1.09224e-20
0
3.70572e-20
-3.85367e-20
0
0
2.94053e-20
0
3.41347e-20
0
2.86693e-20
0
0
0
0
0
0
0
0
0
1.51184e-20
1.56849e-20
0
0
0
0
2.95121e-20
0
0
0
0
0
0
5.40232e-20
-5.7652e-20
1.53423e-20
0
-3.15299e-20
0
0
-2.69538e-20
0
2.9116e-20
0
0
0
0
0
0
0
0
0
0
0
0
0
0
0
0
0
0
0
0
-1.46816e-20
0
0
0
0
0
0
0
0
0
0
0
0
0
0
2.57937e-20
0
0
0
0
-2.61371e-20
0
-3.71379e-20
0
0
0
0
4.51956e-20
2.42598e-20
0
-3.85367e-20
0
0
0
0
3.41347e-20
3.62768e-20
-9.0545e-21
0
0
0
3.34813e-20
-3.48119e-20
0
-1.20453e-20
0
-2.76433e-20
1.51184e-20
1.56849e-20
-1.6275e-20
0
0
0
-1.99257e-20
3.14618e-20
0
0
0
0
0
0
0
-1.53423e-20
-6.06606e-20
3.15299e-20
0
0
0
-5.60257e-20
0
0
0
0
0
0
0
1.3502e-20
-2.96337e-20
0
0
0
0
-2.73723e-20
3.74297e-20
0
9.74402e-21
0
0
0
0
0
0
0
0
0
0
3.51609e-20
3.65615e-20
0
-9.50853e-21
0
0
-1.22516e-20
0
0
0
0
0
0
0
0
-1.44562e-20
2.796e-20
-5.55243e-20
2.75659e-20
0
-4.03903e-20
0
0
0
0
3.89744e-20
2.60496e-20
-3.84234e-20
2.56851e-20
0
-2.53262e-20
0
0
-2.47983e-20
-2.46251e-20
0
2.42827e-20
0
0
0
0
-1.13483e-20
0
0
6.81431e-20
3.38331e-20
1.09478e-20
0
3.3129e-20
0
-1.06385e-20
0
0
-4.24045e-20
0
-3.15491e-20
0
-4.12335e-20
6.17962e-20
2.07074e-20
-3.04725e-20
0
0
0
3.92706e-20
0
-9.49406e-21
0
0
3.79333e-20
6.61145e-20
0
0
0
0
-2.74857e-20
0
0
0
0
2.65661e-20
0
0
-1.68523e-20
1.74885e-20
3.39918e-20
0
-3.35333e-20
0
3.3082e-20
-1.68061e-20
-3.26378e-20
0
0
0
0
0
0
1.59454e-20
0
0
0
0
0
0
0
0
-5.1512e-20
-7.09535e-21
0
2.8753e-20
-2.85644e-20
2.83773e-20
0
-1.36272e-20
0
0
0
6.78386e-20
0
0
0
1.29171e-20
-1.35848e-20
-3.89931e-20
-1.34157e-20
0
-1.2496e-20
0
-1.23323e-20
2.52563e-20
4.94385e-20
0
0
-3.65572e-20
0
2.43134e-20
2.41608e-20
0
-1.15529e-20
0
0
2.3416e-20
1.12586e-20
-2.31265e-20
0
0
0
3.34662e-20
1.08352e-20
-1.07666e-20
2.21507e-20
0
0
0
0
-5.33428e-20
3.16611e-20
3.14689e-20
-2.11033e-20
3.10892e-20
0
0
-3.05318e-20
0
3.0168e-20
2.02435e-20
-2.01248e-20
9.62682e-21
0
0
-9.45336e-21
0
0
0
0
0
0
0
0
0
0
0
-3.59673e-20
0
0
0
-2.6559e-20
-1.78587e-20
6.9537e-20
5.22393e-20
0
0
0
0
0
-2.87129e-20
0
0
-4.1433e-20
0
-1.31165e-20
-1.30214e-20
0
1.28334e-20
-1.42464e-20
0
3.91763e-20
0
2.62579e-20
0
-2.59018e-20
-1.21099e-20
-2.55513e-20
-1.1936e-20
2.52062e-20
2.50356e-20
0
-2.46985e-20
-2.45319e-20
0
1.28543e-20
2.40399e-20
0
-1.11061e-20
-2.35594e-20
-3.43495e-20
0
-3.38819e-20
1.07149e-20
0
0
0
0
-3.25224e-20
-3.2302e-20
0
4.19864e-20
0
-9.97711e-21
0
0
-3.08065e-20
9.69783e-21
3.03942e-20
0
0
2.97877e-20
0
0
0
9.16496e-21
0
2.86168e-20
3.74006e-20
1.93278e-20
2.80518e-20
0
-1.7451e-20
-1.73293e-20
0
1.70889e-20
0
0
-1.67353e-20
0
-3.45146e-20
3.42862e-20
0
0
-1.7559e-20
-1.74484e-20
0
0
1.71218e-20
3.25232e-20
0
0
0
-3.16829e-20
0
0
0
0
-1.60879e-20
0
0
0
0
0
2.95059e-20
1.39056e-20
2.91303e-20
0
0
-2.8578e-20
4.18423e-20
1.33555e-20
-1.47726e-20
0
-2.76869e-20
0
0
0
3.9746e-20
-2.6831e-20
-2.6664e-20
-2.64983e-20
2.63339e-20
-1.38386e-20
-2.60092e-20
0
0
0
-3.73102e-20
-1.33633e-20
-1.32863e-20
0
1.1628e-20
0
0
-3.57199e-20
0
0
-1.26929e-20
1.11151e-20
5.82339e-20
0
2.33148e-20
-3.40118e-20
-2.30395e-20
0
3.34e-20
0
0
0
1.03672e-20
7.51306e-20
-3.22218e-20
3.20312e-20
2.17302e-20
-1.00495e-20
-2.14814e-20
0
9.86522e-21
0
-2.09964e-20
3.05633e-20
-9.62682e-21
0
-3.95491e-20
0
-6.87886e-20
0
2.93595e-20
-1.07354e-20
0
-3.79855e-20
0
1.95313e-20
0
0
-2.80714e-20
0
0
-1.89099e-20
8.65153e-21
-8.60181e-21
1.86116e-20
0
4.37833e-20
2.89724e-20
2.95197e-20
0
0
0
-2.87129e-20
0
0
0
5.58616e-20
-2.7739e-20
-4.05702e-20
-1.2927e-20
-4.00061e-20
0
-5.3605e-20
0
-1.2466e-20
-2.62579e-20
0
2.59018e-20
1.21099e-20
0
0
0
1.32708e-20
-1.16802e-20
0
-2.45319e-20
2.43667e-20
-5.97536e-20
0
3.50647e-20
3.48245e-20
0
0
0
1.0792e-20
0
-1.21446e-20
-3.31942e-20
0
3.27446e-20
0
0
0
-6.37326e-20
0
0
0
9.83637e-21
-3.08065e-20
0
-9.62937e-21
2.0629e-20
0
0
0
0
-2.91953e-20
9.16496e-21
0
-9.0369e-21
-1.94533e-20
-1.93278e-20
0
0
0
0
2.7319e-20
0
-2.69613e-20
2.67845e-20
1.67353e-20
1.66193e-20
0
0
8.13839e-21
0
0
0
-1.73387e-20
0
-3.27375e-20
-5.72922e-20
1.69084e-20
0
2.42944e-20
-3.16829e-20
0
0
-3.10701e-20
-3.0869e-20
0
3.77131e-20
0
0
-2.98876e-20
-1.40949e-20
2.95059e-20
-1.39056e-20
2.91303e-20
0
-2.87606e-20
0
0
-1.33555e-20
-2.8039e-20
1.3178e-20
2.76869e-20
0
0
0
1.42528e-20
2.6831e-20
0
-3.89943e-20
-2.63339e-20
0
-5.20184e-20
0
0
0
0
0
0
0
0
-2.46121e-20
0
-2.43154e-20
0
-3.52822e-20
1.11866e-20
-3.48517e-20
0
1.0974e-20
-1.24106e-20
-3.40118e-20
1.07666e-20
2.29036e-20
0
-2.26351e-20
3.30006e-20
0
-2.22407e-20
1.18089e-20
0
0
0
0
3.14689e-20
-3.12847e-20
0
-2.11161e-20
-9.74499e-21
0
0
3.02119e-20
0
0
-9.39654e-21
0
-4.94347e-20
-1.07354e-20
0
0
-1.81317e-20
0
0
0
1.92164e-20
1.91133e-20
0
0
-1.88096e-20
-1.87101e-20
-1.86116e-20
0
4.37833e-20
0
2.95197e-20
0
0
1.52091e-20
0
-1.50105e-20
0
5.62481e-20
0
2.7739e-20
2.75488e-20
0
1.43394e-20
0
0
0
5.2876e-20
0
0
0
2.57258e-20
-2.55513e-20
2.5378e-20
1.33561e-20
0
0
0
1.1513e-20
-2.43667e-20
0
2.40399e-20
2.38785e-20
0
0
-3.43495e-20
-2.32452e-20
0
0
-1.06385e-20
0
3.29685e-20
0
-1.03388e-20
1.02653e-20
0
0
6.3302e-20
0
9.90647e-21
-9.83637e-21
-2.10397e-20
3.05995e-20
0
0
5.04824e-20
9.4272e-21
3.89495e-20
-2.93912e-20
0
0
0
-2.86168e-20
0
0
0
0
0
0
-2.7319e-20
0
8.48505e-21
0
3.49768e-20
1.81254e-20
0
-8.19503e-21
0
3.38349e-20
-1.7559e-20
-2.54196e-20
1.73387e-20
0
0
0
4.77129e-20
-1.68029e-20
0
2.41387e-20
0
3.12727e-20
3.10701e-20
-7.34072e-21
0
0
0
0
0
-2.26485e-20
6.99993e-21
0
0
0
0
-4.2114e-20
0
0
1.32664e-20
-4.10402e-20
-2.76869e-20
0
-6.75978e-20
2.71692e-20
-3.9746e-20
-1.41686e-20
0
2.64983e-20
-1.24139e-20
1.23323e-20
-5.20184e-20
2.58488e-20
3.77815e-20
-1.35191e-20
-1.19346e-20
-3.70773e-20
0
0
2.47623e-20
3.6165e-20
-1.29847e-20
3.57199e-20
0
-3.52822e-20
-1.11866e-20
0
1.10443e-20
-1.0974e-20
3.42191e-20
0
3.38061e-20
0
0
0
1.20044e-20
0
0
3.2414e-20
0
1.01749e-20
-2.17302e-20
-1.00495e-20
-3.14689e-20
0
4.09672e-20
9.80485e-21
0
3.05633e-20
-3.03869e-20
0
0
0
2.02995e-20
-3.88672e-20
0
3.84225e-20
0
0
1.05723e-20
0
0
2.82275e-20
0
1.91133e-20
-2.77635e-20
-4.65215e-20
-3.61126e-20
-1.87101e-20
0
-3.55214e-20
2.68726e-20
1.48626e-20
0
0
0
0
0
-5.70301e-20
-2.83188e-20
2.8124e-20
-4.11432e-20
1.46225e-20
0
0
1.43394e-20
-1.42464e-20
0
6.57958e-20
2.6438e-20
0
-2.60791e-20
0
-1.36159e-20
-1.20226e-20
0
3.70562e-20
3.68004e-20
1.16802e-20
1.31023e-20
-2.45319e-20
0
0
1.1267e-20
-3.50647e-20
0
0
1.09478e-20
0
-3.38819e-20
3.36509e-20
0
0
0
0
-1.03388e-20
0
0
3.18663e-20
0
0
4.11319e-20
2.11788e-20
-3.08065e-20
-3.05995e-20
0
-3.01904e-20
0
0
0
-9.29504e-21
-2.91953e-20
0
0
0
0
-1.93278e-20
1.92032e-20
0
0
-2.75001e-20
2.7319e-20
0
0
3.52106e-20
-1.82414e-20
-3.47448e-20
0
-2.60912e-20
-1.77829e-20
0
0
-2.54196e-20
-6.63425e-20
0
1.71218e-20
0
4.00118e-20
-1.68029e-20
0
-1.65945e-20
0
-2.23249e-20
0
1.46814e-20
0
0
0
-1.57934e-20
0
-1.40949e-20
0
1.54117e-20
2.91303e-20
-7.16087e-20
2.87606e-20
0
0
-1.33555e-20
-6.93445e-20
0
0
0
-2.73403e-20
0
0
0
-3.77366e-20
6.54926e-20
-2.63339e-20
0
-1.22515e-20
0
0
0
3.73102e-20
0
0
0
2.47623e-20
-2.46121e-20
0
-1.29108e-20
0
0
-2.38795e-20
2.37365e-20
6.92781e-20
2.34542e-20
0
0
0
0
0
2.26351e-20
3.30006e-20
0
0
3.2414e-20
3.22218e-20
-2.18562e-20
4.19541e-20
0
-9.98752e-21
0
3.1102e-20
9.80485e-21
2.09964e-20
9.68565e-21
-3.03869e-20
3.97804e-20
3.00384e-20
-9.45336e-21
9.39654e-21
0
0
3.84225e-20
0
3.79855e-20
0
0
2.83849e-20
8.907e-21
8.85498e-21
0
-2.77635e-20
0
1.88096e-20
0
-1.86116e-20
0
1.69107e-20
7.05486e-21
-2.95197e-20
-2.93157e-20
0
0
0
0
0
2.8124e-20
0
2.7739e-20
-4.05702e-20
-1.2927e-20
2.71727e-20
0
2.68025e-20
0
0
0
-2.60791e-20
-3.96057e-20
0
-3.75739e-20
1.3442e-20
2.52062e-20
5.00712e-20
0
-1.31023e-20
-6.05768e-20
0
0
1.1267e-20
0
0
-1.10267e-20
-3.43495e-20
0
-3.38819e-20
0
0
0
0
-3.27446e-20
0
1.02653e-20
0
0
2.00966e-20
-9.97711e-21
0
0
0
0
0
2.0629e-20
-2.99882e-20
0
9.36086e-21
-5.87824e-20
2.91953e-20
0
2.88081e-20
2.86168e-20
-3.74006e-20
0
0
0
0
-3.61647e-20
0
0
0
0
0
1.66193e-20
0
-3.42862e-20
0
0
0
-1.74484e-20
1.73387e-20
0
0
0
-1.54023e-20
0
1.66983e-20
-3.16829e-20
1.49854e-20
2.38311e-20
-7.39098e-21
0
-1.45817e-20
0
1.43846e-20
-3.00807e-20
2.98876e-20
0
2.95059e-20
0
0
1.52254e-20
5.75213e-20
-4.2114e-20
0
0
0
0
2.76869e-20
0
0
0
-3.9746e-20
1.26624e-20
1.40851e-20
-2.64983e-20
2.63339e-20
0
0
0
1.3598e-20
0
2.53755e-20
0
3.68464e-20
2.49137e-20
3.63903e-20
0
-3.59415e-20
3.57199e-20
0
0
1.11866e-20
0
1.10443e-20
0
-2.33148e-20
0
-1.07666e-20
-1.06986e-20
0
3.31995e-20
1.04981e-20
1.19387e-20
-5.48486e-20
7.51306e-20
-3.22218e-20
0
-2.17302e-20
3.16547e-20
0
-3.12847e-20
0
0
2.09964e-20
0
2.076e-20
2.06434e-20
3.95491e-20
0
0
0
-2.93595e-20
0
-1.98547e-20
0
9.06587e-21
0
1.94254e-20
0
2.80714e-20
1.91133e-20
0
0
0
4.60221e-20
0
3.55214e-20
2.5366e-20
-1.41097e-20
0
0
1.38036e-20
1.52091e-20
0
-1.50105e-20
0
1.4815e-20
2.79308e-20
-1.46225e-20
0
0
5.43455e-20
3.97273e-20
1.41542e-20
2.66195e-20
-1.2466e-20
1.38819e-20
0
0
0
-3.75739e-20
1.3442e-20
1.18501e-20
1.32708e-20
2.48664e-20
1.31023e-20
3.60449e-20
0
-5.97536e-20
0
0
1.26122e-20
0
2.34017e-20
0
-3.38819e-20
1.07149e-20
3.34216e-20
-1.20688e-20
0
0
-1.03388e-20
1.02653e-20
0
-3.18663e-20
-2.16027e-20
3.14374e-20
9.90647e-21
2.11788e-20
-3.08065e-20
0
4.00235e-20
0
0
0
0
9.29504e-21
-3.8425e-20
1.9836e-20
0
0
3.74006e-20
3.71495e-20
0
3.66532e-20
-3.6408e-20
1.01707e-20
0
0
-5.39225e-20
0
2.66091e-20
3.47448e-20
0
3.42862e-20
3.55658e-20
0
0
1.74484e-20
-1.73387e-20
0
-1.56157e-20
-2.47689e-20
0
3.20997e-20
0
-1.65945e-20
-1.49854e-20
1.48833e-20
0
0
0
0
-3.74678e-20
0
3.69829e-20
0
-2.95059e-20
1.54117e-20
0
4.2664e-20
0
0
0
0
0
0
-2.76869e-20
1.45095e-20
-2.73403e-20
0
-3.9746e-20
-5.3662e-20
0
2.64983e-20
0
-2.61709e-20
-5.20184e-20
2.58488e-20
0
3.75449e-20
-3.73102e-20
0
3.68464e-20
0
1.1628e-20
0
1.29847e-20
0
1.13313e-20
-3.52822e-20
-2.38795e-20
0
0
-1.24803e-20
0
-1.08352e-20
0
3.36022e-20
-3.34e-20
-3.31995e-20
0
3.28034e-20
0
-4.27166e-20
3.22218e-20
0
0
0
3.14689e-20
0
0
0
-9.74499e-21
0
-3.03869e-20
6.04238e-20
0
0
-5.9392e-20
0
0
0
0
0
3.77699e-20
0
0
0
0
1.91133e-20
-2.77635e-20
5.52232e-20
-2.74611e-20
1.01083e-20
0
-1.8514e-20
0
1.41097e-20
1.40069e-20
8.4584e-21
0
0
-2.87129e-20
-5.70301e-20
-2.83188e-20
-4.1433e-20
0
0
-1.45274e-20
-2.736e-20
0
-2.69869e-20
0
6.57958e-20
0
2.62579e-20
0
0
0
0
0
1.18501e-20
-3.68004e-20
0
0
1.1513e-20
3.5797e-20
0
1.1267e-20
3.50647e-20
4.59306e-20
0
1.09478e-20
-1.08696e-20
1.2298e-20
0
-1.06385e-20
0
-4.3456e-20
0
3.25224e-20
1.02653e-20
0
3.18663e-20
0
-3.14374e-20
4.11319e-20
-9.83637e-21
0
-2.09017e-20
2.07648e-20
2.0629e-20
-2.99882e-20
0
2.95886e-20
9.29504e-21
6.76203e-20
-1.9836e-20
0
0
0
5.64773e-20
-3.69004e-20
0
0
2.75001e-20
0
0
-2.54552e-20
-7.04212e-20
3.49768e-20
-3.47448e-20
0
0
0
3.38349e-20
0
-1.74484e-20
0
0
0
-3.25232e-20
0
3.20997e-20
-1.50613e-21
0
0
3.12727e-20
0
0
3.06696e-20
0
0
0
0
0
2.95059e-20
0
0
2.89447e-20
-2.87606e-20
0
0
-1.48617e-20
0
0
2.76869e-20
0
-4.02574e-20
1.28315e-20
1.42528e-20
-1.26624e-20
0
0
-2.63339e-20
1.23323e-20
0
0
0
0
0
-2.52203e-20
6.19128e-20
0
2.47623e-20
-1.15529e-20
0
0
0
-3.52822e-20
-1.11866e-20
4.59668e-20
0
3.44282e-20
3.42191e-20
0
-5.68456e-20
0
2.27688e-20
2.26351e-20
0
-3.28034e-20
0
0
0
0
0
0
3.14689e-20
9.92611e-21
1.13716e-20
9.80485e-21
0
3.05633e-20
2.076e-20
2.06434e-20
9.51068e-21
-5.9733e-20
-9.39654e-21
4.97139e-20
0
0
0
9.11977e-21
0
0
0
2.82275e-20
-8.85498e-21
0
0
-1.89099e-20
0
0
0
0
0
0
1.40069e-20
0
0
0
2.87129e-20
-1.50105e-20
-4.17252e-20
-2.8124e-20
-1.47184e-20
0
-2.75488e-20
1.2927e-20
-1.43394e-20
0
1.26482e-20
0
0
1.38819e-20
0
0
1.36159e-20
-3.75739e-20
1.1936e-20
2.52062e-20
0
0
0
3.60449e-20
3.5797e-20
0
0
-1.11862e-20
-3.48245e-20
0
1.09478e-20
1.08696e-20
0
0
0
0
-3.29685e-20
0
0
0
0
-1.01201e-20
6.3302e-20
0
6.3957e-20
3.10152e-20
0
-3.05995e-20
2.07648e-20
0
2.99882e-20
0
9.36086e-21
0
3.8425e-20
0
-2.88081e-20
0
-3.74006e-20
-3.71495e-20
0
2.78664e-20
-4.66396e-20
0
-2.7319e-20
3.56839e-20
1.84762e-20
0
0
0
-8.25212e-21
0
-1.77829e-20
3.38349e-20
-2.55855e-20
2.54196e-20
7.91628e-21
-7.86185e-21
1.71218e-20
0
0
-7.6484e-21
0
0
0
0
-7.39098e-21
0
-1.45817e-20
0
0
-3.00807e-20
-2.98876e-20
-1.40949e-20
0
0
0
5.78894e-20
2.87606e-20
0
0
0
0
0
0
1.30034e-20
0
-2.71692e-20
0
-1.41686e-20
0
2.64983e-20
1.24139e-20
1.23323e-20
-2.60092e-20
5.16977e-20
0
0
2.53755e-20
2.52203e-20
0
0
2.47623e-20
0
-2.44631e-20
0
0
3.52822e-20
-3.5066e-20
-3.48517e-20
0
1.0974e-20
0
0
0
3.36022e-20
0
-2.26351e-20
5.55031e-20
3.28034e-20
0
-4.27166e-20
3.22218e-20
-3.20312e-20
0
3.16547e-20
-9.98752e-21
0
-4.09672e-20
0
0
-2.08777e-20
0
0
9.51068e-21
0
0
2.01868e-20
-2.93595e-20
0
0
0
-1.81317e-20
0
0
2.82275e-20
0
0
0
-1.89099e-20
5.49222e-20
-1.87101e-20
1.86116e-20
0
1.84172e-20
1.48626e-20
0
0
4.29168e-20
2.89122e-20
0
1.50105e-20
0
2.8124e-20
0
0
0
4.02871e-20
-2.71727e-20
5.39738e-20
-1.26482e-20
2.66195e-20
0
0
0
0
0
-1.20226e-20
3.7314e-20
-3.70562e-20
-3.68004e-20
0
0
1.1513e-20
-3.5797e-20
0
2.40399e-20
2.38785e-20
1.11061e-20
0
0
2.32452e-20
3.38819e-20
0
-1.06385e-20
0
2.2481e-20
-2.23317e-20
0
-2.20367e-20
0
2.17462e-20
7.33503e-20
0
0
0
-3.08065e-20
4.02974e-20
-9.62937e-21
0
-9.49406e-21
-2.03605e-20
-5.91773e-20
-9.29504e-21
2.91953e-20
0
0
0
-1.79473e-20
-1.93278e-20
8.84858e-21
2.78664e-20
-3.6408e-20
0
-2.7319e-20
1.8595e-20
-1.84762e-20
-3.52106e-20
0
0
0
-1.78962e-20
-2.59213e-20
0
-2.55855e-20
-1.74484e-20
2.5255e-20
-1.57237e-20
-7.80785e-21
0
0
4.89027e-20
-1.51922e-20
0
0
0
-1.62881e-20
-7.34072e-21
0
-3.04717e-20
0
-3.00807e-20
-7.09535e-21
2.9696e-20
0
-1.39056e-20
-2.91303e-20
0
0
2.8578e-20
2.83969e-20
0
0
0
0
0
0
2.71692e-20
-1.42528e-20
-3.94934e-20
0
0
-1.39201e-20
0
0
-2.58488e-20
0
3.75449e-20
-3.73102e-20
1.33633e-20
-1.17801e-20
0
0
3.6165e-20
-3.59415e-20
-2.43154e-20
0
1.12586e-20
-1.26929e-20
-2.37365e-20
0
0
0
-1.08352e-20
0
-4.43008e-20
0
1.05644e-20
-3.30006e-20
3.28034e-20
0
7.51306e-20
0
0
-4.19541e-20
0
-2.14814e-20
2.13586e-20
0
9.80485e-21
0
3.05633e-20
0
0
3.00384e-20
0
0
-9.34021e-21
2.93595e-20
3.84225e-20
2.90289e-20
0
1.96382e-20
2.85438e-20
2.83849e-20
0
1.92164e-20
0
-4.52682e-20
0
0
0
0
-1.00102e-20
-1.84172e-20
-7.05486e-21
2.95197e-20
2.93157e-20
-4.29168e-20
-4.26154e-20
-1.36034e-20
-5.70301e-20
0
0
-1.47184e-20
0
-6.9625e-20
2.5854e-20
0
0
-3.94507e-20
-2.66195e-20
0
0
3.83657e-20
0
1.21099e-20
-2.55513e-20
5.07561e-20
1.18501e-20
0
1.16802e-20
-1.31023e-20
-2.45319e-20
0
0
0
0
2.37183e-20
-1.10267e-20
5.77512e-20
2.32452e-20
0
2.29359e-20
1.21446e-20
0
2.2481e-20
2.23317e-20
1.03388e-20
1.02653e-20
0
3.18663e-20
0
0
-4.11319e-20
3.10152e-20
-4.05734e-20
0
0
-2.0629e-20
2.99882e-20
0
-2.95886e-20
0
0
9.16496e-21
2.88081e-20
-9.0369e-21
3.74006e-20
1.93278e-20
2.80518e-20
0
1.7451e-20
0
-1.87147e-20
-1.00505e-20
2.69613e-20
0
0
1.81254e-20
0
1.63901e-20
-1.77829e-20
0
0
0
7.91628e-21
0
0
-3.25232e-20
4.00118e-20
-7.6484e-21
-1.66983e-20
3.16829e-20
-4.64624e-20
-2.23249e-20
0
0
-1.45817e-20
-3.04717e-20
0
0
-2.98876e-20
-1.40949e-20
0
0
0
2.89447e-20
0
0
0
0
0
-4.10402e-20
0
0
0
0
0
-1.26624e-20
1.25789e-20
1.2496e-20
-2.63339e-20
0
1.22515e-20
-1.36775e-20
2.56898e-20
-2.5532e-20
2.53755e-20
0
1.17801e-20
2.49137e-20
3.63903e-20
3.6165e-20
1.14784e-20
0
0
1.12586e-20
-1.11866e-20
1.11151e-20
0
0
0
0
0
-3.36022e-20
0
-3.31995e-20
0
0
-4.29751e-20
0
3.22218e-20
0
4.19541e-20
1.00495e-20
3.14689e-20
-6.25694e-20
0
0
0
-3.05633e-20
2.076e-20
0
0
0
-9.39654e-21
9.34021e-21
0
1.99645e-20
0
2.88658e-20
0
0
0
0
0
0
0
0
0
0
2.71641e-20
-1.8514e-20
-1.84172e-20
0
1.55129e-20
0
0
0
2.87129e-20
0
0
0
0
6.85946e-20
2.75488e-20
0
-4.00061e-20
0
1.41542e-20
-1.25568e-20
-1.2466e-20
-2.62579e-20
1.22866e-20
-1.37039e-20
0
2.55513e-20
0
-1.18501e-20
0
-1.16802e-20
-1.31023e-20
0
0
0
1.1267e-20
0
-1.26122e-20
-5.81454e-20
0
0
-3.38819e-20
0
-1.21446e-20
1.05627e-20
2.2481e-20
0
0
0
0
-1.01201e-20
4.16993e-20
0
-9.90647e-21
-3.10152e-20
-4.05734e-20
-1.12039e-20
9.62937e-21
0
0
2.97877e-20
-2.95886e-20
0
9.22974e-21
0
0
-2.86168e-20
-5.6854e-20
0
0
0
1.8957e-20
-4.63355e-20
-1.87147e-20
3.56839e-20
-2.69613e-20
0
0
-3.47448e-20
-3.45146e-20
-8.19503e-21
0
0
-2.55855e-20
-2.54196e-20
0
0
0
0
0
2.44513e-20
0
-3.16829e-20
0
0
3.8461e-20
0
-1.60879e-20
-3.04717e-20
0
0
0
-2.9696e-20
0
1.54117e-20
0
0
1.36272e-20
-4.2114e-20
0
1.33555e-20
0
0
-4.07772e-20
1.30034e-20
-1.29171e-20
1.28315e-20
0
-2.6831e-20
-2.6664e-20
6.54926e-20
-1.24139e-20
-3.85033e-20
2.60092e-20
0
3.77815e-20
0
0
3.70773e-20
0
1.17037e-20
3.63903e-20
0
0
1.14046e-20
0
-1.12586e-20
1.11866e-20
0
0
0
0
0
0
0
0
0
0
-3.28034e-20
-5.48486e-20
0
0
-1.01749e-20
-4.19541e-20
-7.3359e-20
-9.98752e-21
-1.14325e-20
0
0
2.09964e-20
-4.0249e-20
-2.076e-20
0
0
-9.45336e-21
-9.39654e-21
-2.9527e-20
2.93595e-20
-5.8387e-20
9.17415e-21
0
-1.81317e-20
1.95313e-20
-1.94254e-20
8.907e-21
1.771e-20
4.70301e-20
0
-8.70171e-21
0
0
0
-8.50372e-21
0
0
1.55129e-20
0
0
2.89122e-20
0
7.05347e-20
2.83188e-20
0
-2.79308e-20
0
-2.75488e-20
-2.5854e-20
1.28334e-20
5.39738e-20
1.26482e-20
0
-1.2466e-20
3.86338e-20
-2.60791e-20
0
0
0
1.1936e-20
0
0
-3.65466e-20
0
2.45319e-20
0
-1.13483e-20
0
0
0
0
2.34017e-20
5.736e-20
0
0
4.55662e-20
1.05627e-20
-5.54495e-20
0
-1.03388e-20
-6.4604e-20
-2.18909e-20
0
-3.1651e-20
0
3.12255e-20
9.83637e-21
-2.10397e-20
0
0
0
0
2.97877e-20
0
9.29504e-21
-3.8425e-20
0
1.97074e-20
0
-5.6854e-20
0
0
-1.90797e-20
3.6408e-20
0
0
8.54445e-21
0
0
0
0
0
-4.39874e-20
-2.59213e-20
0
0
0
1.73387e-20
0
1.71218e-20
-2.47689e-20
4.00118e-20
2.44513e-20
1.66983e-20
2.41387e-20
0
3.12727e-20
7.39098e-21
0
3.06696e-20
-1.44828e-20
0
-2.29371e-20
-7.09535e-21
4.37908e-20
2.25059e-20
2.93173e-20
0
0
0
0
0
0
-2.8039e-20
4.10402e-20
0
1.45095e-20
4.02574e-20
0
1.27466e-20
-1.26624e-20
-3.92428e-20
6.54926e-20
-5.26678e-20
0
-2.60092e-20
0
1.3598e-20
2.5532e-20
0
0
1.17801e-20
1.17037e-20
0
0
0
0
3.55002e-20
0
1.11866e-20
2.37365e-20
0
-1.24803e-20
-5.7534e-20
0
3.38061e-20
0
0
0
3.30006e-20
0
0
-1.03026e-20
0
-1.01749e-20
4.19541e-20
2.16053e-20
0
-3.12847e-20
3.1102e-20
-3.09209e-20
-2.09964e-20
-3.05633e-20
2.076e-20
0
-9.51068e-21
-9.45336e-21
-9.39654e-21
0
-9.28437e-21
2.91935e-20
2.90289e-20
3.79855e-20
-4.68358e-20
2.85438e-20
2.83849e-20
-1.93205e-20
-1.92164e-20
0
0
1.89099e-20
0
0
0
1.8514e-20
0
0
0
0
-2.91132e-20
0
0
0
0
0
-1.32124e-20
0
-4.05702e-20
-4.1793e-20
-2.71727e-20
1.27404e-20
6.62532e-20
0
0
0
1.22866e-20
0
0
-2.55513e-20
0
0
0
-2.48664e-20
1.15963e-20
1.1513e-20
-3.5797e-20
0
0
0
1.11061e-20
0
0
1.08696e-20
0
1.07149e-20
0
3.31942e-20
1.04875e-20
3.27446e-20
0
-2.20367e-20
0
-1.01201e-20
-3.1651e-20
0
-3.12255e-20
2.11788e-20
-4.05734e-20
0
4.00235e-20
0
-9.49406e-21
9.4272e-21
0
0
9.22974e-21
9.16496e-21
2.88081e-20
1.95799e-20
0
0
-8.84858e-21
0
1.7451e-20
1.88354e-20
2.7319e-20
0
-1.84762e-20
-1.83583e-20
3.49768e-20
0
0
1.63901e-20
0
2.57527e-20
0
0
1.73387e-20
-7.86185e-21
0
-3.25232e-20
-4.00118e-20
-7.6484e-21
1.66983e-20
0
0
0
0
0
-5.25421e-20
0
1.43846e-20
0
-7.09535e-21
0
0
0
0
0
0
-4.36202e-20
0
1.33555e-20
0
0
-2.76869e-20
5.50258e-20
0
-2.71692e-20
0
-4.09996e-20
0
0
-1.24139e-20
0
2.60092e-20
-1.36775e-20
2.56898e-20
0
0
3.70773e-20
5.01327e-20
-2.49137e-20
1.31343e-20
2.46121e-20
-1.14784e-20
0
-3.55002e-20
0
-2.38795e-20
0
-1.10443e-20
0
0
0
-1.07666e-20
0
0
-3.31995e-20
0
-3.28034e-20
2.22407e-20
-2.21115e-20
0
0
0
0
-3.14689e-20
9.92611e-21
3.1102e-20
-9.80485e-21
3.07414e-20
0
0
0
3.95491e-20
2.04131e-20
0
2.9527e-20
0
-1.07354e-20
0
9.11977e-21
0
0
0
0
1.92164e-20
0
-2.77635e-20
1.89099e-20
0
0
0
0
0
1.41097e-20
-6.60429e-20
0
1.53096e-20
1.37031e-20
0
0
-1.34064e-20
-4.1433e-20
-2.79308e-20
0
-2.75488e-20
0
-1.28334e-20
1.27404e-20
0
0
-2.6438e-20
2.62579e-20
1.37926e-20
3.80997e-20
1.21099e-20
0
-2.5378e-20
0
1.17648e-20
0
-4.9397e-20
-2.45319e-20
1.14303e-20
0
0
0
1.11061e-20
-2.35594e-20
3.43495e-20
6.82296e-20
-2.309e-20
-1.07149e-20
-2.27831e-20
0
1.04875e-20
0
-3.25224e-20
-1.02653e-20
0
0
1.00483e-20
0
0
4.08516e-20
-9.76683e-21
-9.69783e-21
2.07648e-20
-5.08194e-20
-2.99882e-20
0
-2.95886e-20
0
0
0
-1.97074e-20
9.0369e-21
-2.8427e-20
2.82387e-20
3.69004e-20
-1.90797e-20
-1.8957e-20
0
0
0
3.54463e-20
0
0
-1.66193e-20
0
-2.60912e-20
0
0
0
3.48968e-20
2.5255e-20
0
3.27375e-20
0
0
-3.20997e-20
-1.66983e-20
3.16829e-20
0
0
0
5.43973e-20
3.06696e-20
1.59889e-20
0
-3.72244e-20
0
0
0
-2.93173e-20
-1.53182e-20
2.89447e-20
0
0
-5.67938e-20
0
-2.8039e-20
0
0
-1.45095e-20
-1.44233e-20
2.71692e-20
0
0
1.40851e-20
0
-2.63339e-20
-1.38386e-20
-3.82607e-20
0
0
-1.35191e-20
3.73102e-20
0
2.50664e-20
0
3.63903e-20
0
1.14784e-20
1.14046e-20
0
0
0
0
-3.46391e-20
1.24803e-20
0
-1.08352e-20
3.38061e-20
0
0
-1.05644e-20
3.30006e-20
0
0
-1.03026e-20
-3.22218e-20
-1.01749e-20
6.36843e-20
3.16547e-20
0
-9.92611e-21
0
0
-9.74499e-21
3.05633e-20
-3.03869e-20
-9.5685e-21
0
0
0
-2.9527e-20
0
0
3.82031e-20
3.79855e-20
-4.68358e-20
-2.85438e-20
-2.83849e-20
8.907e-21
0
-1.91133e-20
0
0
0
0
2.71641e-20
-1.8514e-20
8.45535e-21
-2.7288e-20
0
0
-6.79356e-20
-2.72898e-20
-2.71057e-20
-1.42145e-20
0
0
-6.52052e-20
0
2.60305e-20
0
3.77718e-20
2.55116e-20
0
0
0
2.48385e-20
1.15837e-20
0
0
-1.13401e-20
0
0
6.96251e-20
0
0
-4.49852e-20
-5.69798e-20
-1.07179e-20
6.6869e-20
0
-2.2495e-20
4.31907e-20
0
3.2335e-20
0
-3.19072e-20
-1.00632e-20
0
0
0
5.04406e-20
-9.71918e-21
-2.08101e-20
3.98475e-20
0
2.04133e-20
3.90602e-20
0
0
0
-5.78119e-20
-9.07073e-21
-1.95235e-20
0
0
-1.91571e-20
0
-3.63291e-20
0
2.72699e-20
-1.85655e-20
1.845e-20
0
2.65796e-20
3.4712e-20
0
0
3.40463e-20
-1.61609e-20
-1.60526e-20
-3.33964e-20
-2.5264e-20
-1.7239e-20
0
-2.47921e-20
0
2.44838e-20
0
3.17385e-20
0
1.64234e-20
0
0
0
3.05638e-20
0
-7.16966e-21
1.5752e-20
-2.9812e-20
0
0
-3.62036e-20
0
0
2.72233e-20
-5.71087e-20
0
4.30653e-20
0
0
1.46029e-20
1.30132e-20
-6.76651e-20
0
6.68485e-20
-3.95659e-20
1.41129e-20
-1.40336e-20
0
0
6.44793e-20
1.3723e-20
-1.21406e-20
1.35716e-20
-3.74778e-20
0
-6.2227e-20
0
-2.49019e-20
-2.47586e-20
0
3.59605e-20
-1.14149e-20
0
1.27835e-20
0
-2.37898e-20
0
6.90644e-20
-1.09429e-20
-3.41399e-20
3.39463e-20
-2.30051e-20
-1.06859e-20
0
-1.05608e-20
7.65067e-20
-5.52026e-20
-1.03773e-20
0
3.22796e-20
0
0
0
0
-9.96802e-21
4.11532e-20
0
0
-2.0998e-20
3.05809e-20
-3.04196e-20
-3.02598e-20
0
0
0
0
-2.94833e-20
-2.00572e-20
0
0
6.84116e-20
-9.07904e-21
0
0
-1.93805e-20
0
1.76891e-20
0
1.90149e-20
3.63449e-20
-1.88377e-20
0
-2.72429e-20
0
0
5.22191e-20
0
4.55789e-20
-3.06708e-20
0
4.46093e-20
0
0
0
0
0
-2.89931e-20
0
-4.21316e-20
0
1.33433e-20
-5.59926e-20
0
4.06595e-20
5.48331e-20
1.28602e-20
0
-1.26721e-20
-2.66644e-20
0
-2.6297e-20
1.23047e-20
-3.81499e-20
-1.36312e-20
0
0
0
0
-2.48832e-20
1.16033e-20
0
0
0
-5.93555e-20
2.38793e-20
2.37165e-20
4.5604e-20
0
-1.08648e-20
-3.38638e-20
2.29213e-20
4.55318e-20
-3.31646e-20
0
0
0
0
6.40704e-20
-3.18146e-20
-3.15956e-20
0
-3.11629e-20
4.07634e-20
0
-9.67343e-21
3.03174e-20
0
-3.93706e-20
0
2.94979e-20
2.00334e-20
0
0
0
1.95081e-20
-2.83159e-20
-1.92515e-20
5.58681e-20
0
0
1.87503e-20
2.71881e-20
0
-3.52631e-20
0
-1.81455e-20
-2.6288e-20
2.61122e-20
0
4.34432e-20
-2.5593e-20
7.97218e-21
-1.58317e-20
0
-3.27239e-20
0
0
-3.20686e-20
0
0
2.3948e-20
0
3.10104e-20
0
0
0
2.30215e-20
-2.99931e-20
0
-3.81262e-20
6.97391e-21
0
0
0
0
0
0
0
0
0
-4.05403e-20
0
2.71719e-20
-1.27447e-20
0
2.66468e-20
6.54334e-20
2.63037e-20
2.61342e-20
3.81959e-20
-3.79457e-20
6.33311e-20
3.74511e-20
2.53066e-20
0
-2.49847e-20
1.16597e-20
-1.15809e-20
0
0
-1.1348e-20
0
2.38978e-20
3.48681e-20
0
2.19442e-20
3.42024e-20
3.39841e-20
0
3.35526e-20
0
2.25875e-20
0
0
2.21714e-20
0
0
2.17654e-20
3.16953e-20
-3.14972e-20
0
-4.09724e-20
0
3.07208e-20
0
9.61192e-21
-3.01549e-20
2.99694e-20
0
-3.89684e-20
-3.87271e-20
0
0
0
0
0
-1.94132e-20
-1.92994e-20
3.68666e-20
0
-1.50631e-21
0
0
0
-1.85284e-20
0
0
2.60816e-20
0
2.5707e-20
-3.35272e-20
0
4.88059e-20
-1.71519e-20
-4.03219e-20
0
3.20856e-20
0
-1.50569e-20
0
0
-3.82915e-20
-3.07094e-20
0
0
0
0
0
2.24233e-20
0
0
0
0
0
0
0
-1.31153e-20
0
1.29158e-20
-3.99575e-20
0
3.93728e-20
-2.65578e-20
2.63666e-20
0
2.59887e-20
-2.58019e-20
1.20554e-20
0
-1.3378e-20
3.68507e-20
0
0
1.302e-20
-3.5785e-20
0
0
3.50072e-20
0
0
0
2.31671e-20
0
0
6.65218e-20
0
-3.27791e-20
-5.4737e-20
1.02663e-20
0
3.18377e-20
-3.16068e-20
-3.13778e-20
9.88154e-21
0
9.73176e-21
0
-3.9843e-20
0
2.98231e-20
-2.96078e-20
0
2.91822e-20
-2.89719e-20
0
0
0
-1.92663e-20
5.58885e-20
2.77434e-20
-1.88648e-20
-1.72271e-20
-3.56985e-20
1.84724e-20
-1.68377e-20
5.16358e-20
0
5.23838e-20
0
3.39231e-20
1.75916e-20
0
0
0
0
3.24762e-20
3.22416e-20
0
-3.17776e-20
0
-1.64134e-20
3.10951e-20
-3.08711e-20
0
-3.76588e-20
0
-2.99922e-20
0
0
0
-2.91401e-20
-5.78624e-20
0
1.5012e-20
0
2.81115e-20
0
0
0
0
2.7122e-20
1.27114e-20
-2.82427e-20
1.40262e-20
0
0
-5.19683e-20
2.57996e-20
-3.76718e-20
0
2.52545e-20
1.17848e-20
-2.4898e-20
0
-3.60676e-20
0
0
-2.40307e-20
1.5059e-21
0
-1.10102e-20
2.33607e-20
0
0
0
-2.27111e-20
0
-2.23938e-20
3.26025e-20
4.26568e-20
1.17164e-20
0
-6.33593e-20
3.14534e-20
0
-9.83338e-21
-1.12656e-20
9.68657e-21
9.61401e-21
3.0132e-20
-2.04471e-20
9.39969e-21
0
9.25955e-21
0
0
-2.86661e-20
0
0
0
0
0
0
0
-1.85589e-20
-3.53576e-20
0
-3.80477e-20
0
0
0
0
0
0
-1.87843e-20
1.71411e-20
-3.55152e-20
-1.68694e-20
0
-2.64086e-20
0
-1.63385e-20
1.77141e-20
1.7585e-20
0
0
0
0
0
0
3.19111e-20
3.16683e-20
-2.3947e-20
3.11884e-20
0
0
0
3.74369e-20
0
-6.6657e-20
2.95663e-20
0
0
2.88976e-20
0
0
2.82443e-20
1.47678e-20
0
1.45559e-20
0
0
0
0
0
0
-3.85074e-20
-2.59751e-20
0
0
-1.19417e-20
-3.70425e-20
0
3.64722e-20
-1.30673e-20
1.29741e-20
3.56334e-20
-3.53581e-20
0
-4.59166e-20
-2.35319e-20
5.7632e-20
-1.08358e-20
0
0
0
0
1.04047e-20
0
0
0
0
0
0
4.08198e-20
0
0
-3.02788e-20
0
0
0
0
0
9.13243e-21
2.86798e-20
3.89484e-20
-4.75665e-20
3.68592e-20
0
0
3.60008e-20
-3.57191e-20
0
0
0
0
0
0
2.5732e-20
0
0
0
-3.27611e-20
2.47548e-20
3.99361e-20
0
0
3.14982e-20
-3.12515e-20
0
2.34492e-20
-3.05228e-20
0
0
5.96219e-20
8.52359e-21
-2.93456e-20
0
0
2.86611e-20
0
-1.48596e-20
1.4749e-20
0
0
-2.73393e-20
-2.7125e-20
2.69123e-20
0
1.24932e-20
-1.23893e-20
1.22862e-20
0
-2.56707e-20
0
0
-4.86374e-20
-6.14344e-20
0
2.44862e-20
-1.28999e-20
0
0
0
-1.10176e-20
0
-2.31729e-20
0
3.34633e-20
2.26318e-20
-4.34028e-20
-3.26643e-20
0
-1.02121e-20
2.17578e-20
0
-2.14177e-20
9.87202e-21
0
0
-2.07534e-20
-9.54247e-21
0
0
0
2.9175e-20
-4.72299e-20
2.87072e-20
-3.74662e-20
0
0
2.77935e-20
8.68799e-21
-1.87334e-20
-3.56673e-20
-3.53757e-20
-2.1297e-20
3.20673e-20
0
0
6.26308e-20
-3.10687e-20
-9.77273e-21
-3.05809e-20
0
2.05691e-20
0
-2.96281e-20
-2.00982e-20
-9.21905e-21
3.80752e-20
-3.7771e-20
0
0
2.80308e-20
0
3.62852e-20
3.5995e-20
0
1.84635e-20
3.51378e-20
-2.65188e-20
0
0
0
0
-2.54885e-20
0
0
0
0
3.2162e-20
2.43044e-20
0
3.13941e-20
-3.11421e-20
3.82388e-20
0
0
-1.58297e-20
-2.99116e-20
0
1.54692e-20
1.53509e-20
0
0
0
4.16496e-20
0
-1.31548e-20
-2.75913e-20
0
0
0
-5.34265e-20
-3.89943e-20
-2.62845e-20
-2.45671e-20
-5.02195e-20
1.35798e-20
-3.74179e-20
0
3.68047e-20
-3.65017e-20
-2.46359e-20
0
-3.56069e-20
-2.40441e-20
0
0
0
1.08856e-20
2.30885e-20
1.06982e-20
0
-3.3047e-20
2.2351e-20
3.25026e-20
3.22336e-20
3.19667e-20
0
0
2.12877e-20
0
-9.71947e-21
0
0
2.04397e-20
-9.38432e-21
0
0
-1.97853e-20
0
0
0
-4.71259e-20
-1.89961e-20
0
0