/*--------------------------------*- C++ -*----------------------------------*\
| =========                 |                                                 |
| \\      /  F ield         | OpenFOAM: The Open Source CFD Toolbox           |
|  \\    /   O peration     | Version:  5.x                                   |
|   \\  /    A nd           | Web:      www.OpenFOAM.org                      |
|    \\/     M anipulation  |                                                 |
\*---------------------------------------------------------------------------*/
FoamFile
{
    version     2.0;
    format      ascii;
    class       volVectorField;
    location    "0.5";
    object      Urom;
}
// * * * * * * * * * * * * * * * * * * * * * * * * * * * * * * * * * * * * * //

dimensions      [0 1 -1 0 0 0 0];

internalField   nonuniform List<vector> 
17530
(
(0.1796 0.00251855 0)
(0.113643 0.00321066 0)
(0.472706 0.0286891 0)
(0.039689 0.0038116 0)
(0.32434 0.0321451 0)
(0.863724 0.0711751 0)
(-0.0373505 0.00391292 0)
(0.165818 0.034667 0)
(0.668536 0.0774671 0)
(1.32624 0.124065 0)
(-0.112907 0.00362943 0)
(0.00572533 0.0347578 0)
(0.466379 0.0812015 0)
(1.10798 0.132052 0)
(1.77231 0.183313 0)
(-0.187849 0.00351065 0)
(-0.15129 0.0340176 0)
(0.264891 0.0807095 0)
(0.884665 0.136603 0)
(1.54851 0.192296 0)
(2.15276 0.245344 0)
(-0.265737 0.00377311 0)
(-0.30896 0.0344491 0)
(0.0677565 0.0792517 0)
(0.660122 0.135465 0)
(1.31443 0.198639 0)
(1.93478 0.256077 0)
(2.46478 0.307236 0)
(-0.345722 0.00401864 0)
(-0.472253 0.0357732 0)
(-0.127471 0.08028 0)
(0.442319 0.13221 0)
(1.07386 0.19669 0)
(1.6962 0.266221 0)
(2.25718 0.321198 0)
(2.72347 0.367353 0)
(-0.421006 0.00375857 0)
(-0.637156 0.0353349 0)
(-0.326023 0.0827738 0)
(0.233628 0.132446 0)
(0.845639 0.189675 0)
(1.44573 0.263192 0)
(2.02056 0.337538 0)
(2.52557 0.386409 0)
(2.94577 0.425954 0)
(-0.485381 0.00315921 0)
(-0.790386 0.0315496 0)
(-0.525979 0.0811229 0)
(0.025937 0.13573 0)
(0.636206 0.187508 0)
(1.21402 0.25014 0)
(1.76888 0.333534 0)
(2.29541 0.410347 0)
(2.75284 0.451714 0)
(3.14868 0.485725 0)
(-0.538217 0.00279644 0)
(-0.920665 0.0261121 0)
(-0.713006 0.0723858 0)
(-0.184916 0.133175 0)
(0.430829 0.191718 0)
(1.01004 0.243715 0)
(1.53968 0.312359 0)
(2.05233 0.405284 0)
(2.531 0.482662 0)
(2.9524 0.517919 0)
(3.34985 0.550828 0)
(-0.581363 0.00268873 0)
(-1.02572 0.0213179 0)
(-0.870686 0.0596308 0)
(-0.383226 0.1185 0)
(0.219743 0.188709 0)
(0.813731 0.248411 0)
(1.34449 0.29928 0)
(1.83388 0.374416 0)
(2.30451 0.475122 0)
(2.73934 0.553006 0)
(3.14117 0.586581 0)
(3.56403 0.624916 0)
(-0.614627 0.00239578 0)
(-1.10639 0.0167545 0)
(-0.993246 0.0469099 0)
(-0.544596 0.0956899 0)
(0.0229268 0.16626 0)
(0.614393 0.244405 0)
(1.16455 0.302766 0)
(1.65338 0.352429 0)
(2.10706 0.433366 0)
(2.53535 0.540064 0)
(2.93651 0.620254 0)
(3.33935 0.659386 0)
(3.79658 0.708848 0)
(-0.63636 0.00191795 0)
(-1.16041 0.0117026 0)
(-1.08307 0.0345145 0)
(-0.662075 0.0731249 0)
(-0.132162 0.131082 0)
(0.431123 0.213939 0)
(0.988472 0.296955 0)
(1.49663 0.352412 0)
(1.95085 0.40096 0)
(2.36771 0.485766 0)
(2.75927 0.597702 0)
(3.14277 0.683708 0)
(3.56232 0.736463 0)
(4.04194 0.799154 0)
(-0.646119 0.00159294 0)
(-1.18446 0.00607978 0)
(-1.13988 0.0210397 0)
(-0.74583 0.0528281 0)
(-0.242401 0.098103 0)
(0.283063 0.16711 0)
(0.823559 0.260342 0)
(1.34521 0.345353 0)
(1.81992 0.39688 0)
(2.24289 0.442684 0)
(2.62564 0.529292 0)
(2.99348 0.646671 0)
(3.3758 0.743224 0)
(3.81277 0.814938 0)
(4.28788 0.88972 0)
(-0.645126 0.00126567 0)
(-1.17776 0.000927588 0)
(-1.15793 0.00584285 0)
(-0.80054 0.0303507 0)
(-0.321387 0.070362 0)
(0.170064 0.124407 0)
(0.678977 0.20513 0)
(1.19249 0.305865 0)
(1.68444 0.39136 0)
(2.13397 0.437622 0)
(2.53015 0.477655 0)
(2.89225 0.564243 0)
(3.25241 0.687207 0)
(3.64209 0.798438 0)
(4.08053 0.889821 0)
(4.52089 0.973537 0)
(-0.633966 0.000928357 0)
(-1.14246 -0.00374526 0)
(-1.12991 -0.00907014 0)
(-0.815585 0.00311901 0)
(-0.373157 0.0391586 0)
(0.0845858 0.0885456 0)
(0.5568 0.154572 0)
(1.04515 0.245904 0)
(1.53227 0.353047 0)
(2.0032 0.438306 0)
(2.43278 0.476928 0)
(2.81383 0.509012 0)
(3.17549 0.593681 0)
(3.5415 0.721406 0)
(3.93481 0.847651 0)
(4.34981 0.955655 0)
(4.72843 1.04327 0)
(-0.611666 0.000472841 0)
(-1.08064 -0.00870327 0)
(-1.05437 -0.0227105 0)
(-0.774548 -0.0261949 0)
(-0.381389 -0.00146308 0)
(0.033462 0.0463626 0)
(0.461309 0.109136 0)
(0.915436 0.188039 0)
(1.37769 0.289531 0)
(1.84476 0.403941 0)
(2.29954 0.487997 0)
(2.71315 0.517583 0)
(3.09667 0.542144 0)
(3.47682 0.622663 0)
(3.85517 0.751743 0)
(4.23792 0.888415 0)
(4.60564 1.00704 0)
(4.90068 1.09222 0)
(-0.577292 -0.000200901 0)
(-0.993937 -0.0141935 0)
(-0.938657 -0.0352955 0)
(-0.67378 -0.0533119 0)
(-0.328569 -0.0471205 0)
(0.0375202 -0.00973147 0)
(0.410957 0.052329 0)
(0.819456 0.131063 0)
(1.24675 0.222297 0)
(1.68564 0.335348 0)
(2.13904 0.457581 0)
(2.57633 0.539445 0)
(2.97944 0.562304 0)
(3.38239 0.582575 0)
(3.79134 0.655987 0)
(4.17852 0.779567 0)
(4.53338 0.918631 0)
(4.83321 1.03932 0)
(5.03408 1.11699 0)
(-0.530659 -0.000855754 0)
(-0.88504 -0.0198036 0)
(-0.796631 -0.0466376 0)
(-0.530116 -0.0745919 0)
(-0.222807 -0.0870807 0)
(0.0996604 -0.0695736 0)
(0.422531 -0.0203857 0)
(0.776674 0.0581421 0)
(1.16357 0.151096 0)
(1.56216 0.254825 0)
(1.98621 0.381266 0)
(2.42589 0.510165 0)
(2.8416 0.589865 0)
(3.24383 0.612476 0)
(3.67496 0.632943 0)
(4.10837 0.695695 0)
(4.49211 0.805775 0)
(4.80293 0.93709 0)
(5.01862 1.04996 0)
(5.13356 1.12062 0)
(-0.471968 -0.00147327 0)
(-0.755196 -0.0250597 0)
(-0.638242 -0.0568642 0)
(-0.364398 -0.0901837 0)
(-0.0884648 -0.11575 0)
(0.192371 -0.117543 0)
(0.476525 -0.0902982 0)
(0.782374 -0.0279912 0)
(1.13285 0.0644598 0)
(1.49815 0.167212 0)
(1.87978 0.283721 0)
(2.29415 0.423418 0)
(2.71275 0.556871 0)
(3.1087 0.637077 0)
(3.52193 0.667448 0)
(3.97562 0.691204 0)
(4.41363 0.740951 0)
(4.77668 0.830986 0)
(5.02825 0.943291 0)
(5.15497 1.04086 0)
(5.21068 1.1115 0)
(-0.400824 -0.00207036 0)
(-0.603331 -0.0303705 0)
(-0.461999 -0.0673572 0)
(-0.183842 -0.103971 0)
(0.0654897 -0.137038 0)
(0.296811 -0.151538 0)
(0.541642 -0.141833 0)
(0.804422 -0.10366 0)
(1.12101 -0.0274883 0)
(1.47286 0.0726018 0)
(1.83025 0.181071 0)
(2.2108 0.308489 0)
(2.61383 0.458026 0)
(3.00727 0.594253 0)
(3.39502 0.680132 0)
(3.82362 0.723986 0)
(4.27825 0.751464 0)
(4.69409 0.788353 0)
(5.0163 0.854192 0)
(5.19552 0.937105 0)
(5.24812 1.0185 0)
(5.27707 1.09806 0)
(-0.316654 -0.00267798 0)
(-0.42667 -0.0360147 0)
(-0.261328 -0.0792151 0)
(0.0179586 -0.120068 0)
(0.249881 -0.15801 0)
(0.425848 -0.181973 0)
(0.616837 -0.181279 0)
(0.830745 -0.158639 0)
(1.09929 -0.1045 0)
(1.43746 -0.0167922 0)
(1.79624 0.0852047 0)
(2.16366 0.196823 0)
(2.55064 0.331057 0)
(2.94252 0.48436 0)
(3.32113 0.621715 0)
(3.71399 0.717622 0)
(4.14558 0.775875 0)
(4.57102 0.806469 0)
(4.94128 0.833009 0)
(5.20086 0.871158 0)
(5.30426 0.919802 0)
(5.31358 0.99179 0)
(5.33781 1.08511 0)
(-0.219342 -0.00347974 0)
(-0.223795 -0.0419399 0)
(-0.0329483 -0.0922261 0)
(0.246451 -0.138835 0)
(0.474915 -0.181739 0)
(0.606029 -0.21639 0)
(0.731103 -0.224779 0)
(0.885787 -0.208095 0)
(1.08681 -0.167114 0)
(1.37982 -0.092978 0)
(1.73611 0.00284288 0)
(2.10831 0.105092 0)
(2.49285 0.218551 0)
(2.88815 0.354758 0)
(3.28071 0.505572 0)
(3.66452 0.64151 0)
(4.06519 0.747139 0)
(4.47201 0.816028 0)
(4.84314 0.850325 0)
(5.14915 0.86861 0)
(5.32915 0.876168 0)
(5.36966 0.895173 0)
(5.36593 0.967878 0)
(5.39027 1.07459 0)
(-0.110228 -0.00426005 0)
(0.00364783 -0.0473357 0)
(0.218949 -0.104729 0)
(0.493289 -0.157024 0)
(0.72859 -0.204942 0)
(0.84461 -0.25143 0)
(0.909642 -0.276548 0)
(1.00092 -0.268538 0)
(1.12818 -0.234151 0)
(1.34357 -0.168315 0)
(1.66283 -0.074597 0)
(2.02881 0.0280159 0)
(2.41252 0.132941 0)
(2.81057 0.248397 0)
(3.22159 0.383169 0)
(3.6333 0.526307 0)
(4.03593 0.657319 0)
(4.43059 0.766082 0)
(4.78449 0.839404 0)
(5.08611 0.879463 0)
(5.31274 0.888014 0)
(5.41063 0.866195 0)
(5.41301 0.868049 0)
(5.41105 0.948622 0)
(5.43185 1.06713 0)
(0.00846428 -0.00480376 0)
(0.251143 -0.0517422 0)
(0.489658 -0.115656 0)
(0.744178 -0.172468 0)
(0.979571 -0.22259 0)
(1.10909 -0.276537 0)
(1.14283 -0.323448 0)
(1.18209 -0.336738 0)
(1.24785 -0.315212 0)
(1.37633 -0.258959 0)
(1.62496 -0.166249 0)
(1.9591 -0.056167 0)
(2.32552 0.0547574 0)
(2.71272 0.166175 0)
(3.12347 0.285675 0)
(3.56099 0.418193 0)
(4.00009 0.550385 0)
(4.41739 0.671883 0)
(4.78296 0.7731 0)
(5.06867 0.844969 0)
(5.29324 0.890428 0)
(5.43233 0.886402 0)
(5.46301 0.842657 0)
(5.45076 0.841347 0)
(5.45054 0.931125 0)
(5.47111 1.06283 0)
(0.133575 -0.00529361 0)
(0.514594 -0.0547529 0)
(0.780874 -0.125261 0)
(1.00003 -0.187501 0)
(1.21435 -0.237045 0)
(1.35816 -0.289217 0)
(1.38951 -0.34965 0)
(1.39437 -0.391134 0)
(1.42591 -0.39583 0)
(1.49019 -0.362154 0)
(1.65619 -0.281296 0)
(1.93638 -0.165866 0)
(2.27008 -0.0424083 0)
(2.63159 0.079519 0)
(3.02222 0.200261 0)
(3.4521 0.326922 0)
(3.91488 0.458193 0)
(4.37023 0.57967 0)
(4.78205 0.686229 0)
(5.09799 0.768953 0)
(5.31543 0.834811 0)
(5.46206 0.879553 0)
(5.51825 0.861826 0)
(5.50674 0.808504 0)
(5.49299 0.812789 0)
(5.493 0.910125 0)
(5.53171 1.05948 0)
(0.261301 -0.00546633 0)
(0.788896 -0.0565042 0)
(1.09675 -0.132519 0)
(1.27385 -0.203999 0)
(1.44793 -0.254706 0)
(1.58744 -0.300493 0)
(1.62583 -0.358442 0)
(1.60361 -0.417926 0)
(1.61179 -0.451523 0)
(1.648 -0.451574 0)
(1.75066 -0.403317 0)
(1.97216 -0.300635 0)
(2.26759 -0.17017 0)
(2.59361 -0.0346203 0)
(2.95591 0.0995595 0)
(3.36041 0.231218 0)
(3.81067 0.36722 0)
(4.27949 0.499182 0)
(4.72775 0.612734 0)
(5.1065 0.698724 0)
(5.36349 0.756032 0)
(5.52273 0.810868 0)
(5.5975 0.844237 0)
(5.58929 0.814839 0)
(5.56053 0.764351 0)
(5.54936 0.775543 0)
(5.56068 0.880959 0)
(5.63939 1.0517 0)
(0.388689 -0.00548591 0)
(1.0672 -0.0567989 0)
(1.43442 -0.13668 0)
(1.57801 -0.219497 0)
(1.70036 -0.277608 0)
(1.82035 -0.320997 0)
(1.86297 -0.369051 0)
(1.81685 -0.428955 0)
(1.78597 -0.478622 0)
(1.80522 -0.505803 0)
(1.8699 -0.499395 0)
(2.04062 -0.433949 0)
(2.30743 -0.317085 0)
(2.60644 -0.178549 0)
(2.93523 -0.0320226 0)
(3.31158 0.113716 0)
(3.73545 0.256996 0)
(4.19164 0.402439 0)
(4.6431 0.537135 0)
(5.05905 0.644452 0)
(5.38026 0.705363 0)
(5.58259 0.736582 0)
(5.69496 0.77246 0)
(5.70957 0.784383 0)
(5.66505 0.748966 0)
(5.63675 0.707984 0)
(5.63322 0.724307 0)
(5.67948 0.842846 0)
(5.80366 1.0323 0)
(0.513361 -0.00542323 0)
(1.34343 -0.0558834 0)
(1.78247 -0.137292 0)
(1.91388 -0.229862 0)
(1.97913 -0.301186 0)
(2.07381 -0.349602 0)
(2.11874 -0.393536 0)
(2.06172 -0.446376 0)
(1.97901 -0.498604 0)
(1.96202 -0.535255 0)
(1.99548 -0.55607 0)
(2.11369 -0.535271 0)
(2.35035 -0.452978 0)
(2.6425 -0.330348 0)
(2.95352 -0.187715 0)
(3.30581 -0.0328194 0)
(3.70257 0.122284 0)
(4.13371 0.277174 0)
(4.57495 0.430997 0)
(4.99418 0.569054 0)
(5.35615 0.666697 0)
(5.60914 0.701876 0)
(5.76749 0.710055 0)
(5.83651 0.717925 0)
(5.80843 0.70517 0)
(5.75778 0.670742 0)
(5.73922 0.638469 0)
(5.76014 0.661815 0)
(5.86018 0.797865 0)
(6.01497 0.994588 0)
(0.632999 -0.00522573 0)
(1.61265 -0.0539313 0)
(2.12943 -0.134853 0)
(2.27027 -0.232389 0)
(2.27878 -0.318725 0)
(2.3423 -0.37722 0)
(2.39283 -0.426033 0)
(2.34559 -0.477404 0)
(2.2235 -0.530411 0)
(2.15031 -0.567795 0)
(2.14943 -0.593761 0)
(2.20858 -0.60261 0)
(2.38594 -0.55928 0)
(2.66355 -0.462994 0)
(2.97473 -0.338802 0)
(3.31949 -0.193464 0)
(3.70613 -0.034463 0)
(4.11341 0.127007 0)
(4.53264 0.292284 0)
(4.94559 0.45324 0)
(5.32387 0.591136 0)
(5.61822 0.671675 0)
(5.80865 0.68549 0)
(5.92493 0.673059 0)
(5.94777 0.649208 0)
(5.90221 0.618699 0)
(5.86875 0.588152 0)
(5.8701 0.560644 0)
(5.94051 0.598091 0)
(6.09121 0.745371 0)
(6.26788 0.93752 0)
(0.74557 -0.00493973 0)
(1.87066 -0.0510474 0)
(2.46908 -0.130283 0)
(2.63417 -0.228903 0)
(2.59527 -0.326772 0)
(2.60905 -0.397087 0)
(2.66468 -0.452853 0)
(2.64547 -0.510544 0)
(2.51971 -0.571568 0)
(2.39078 -0.616761 0)
(2.34721 -0.639785 0)
(2.36019 -0.656694 0)
(2.45878 -0.644546 0)
(2.68195 -0.576 0)
(2.97909 -0.468633 0)
(3.3177 -0.340745 0)
(3.70734 -0.192465 0)
(4.11776 -0.0339448 0)
(4.52004 0.130667 0)
(4.91819 0.303683 0)
(5.29839 0.468565 0)
(5.62671 0.59794 0)
(5.85207 0.655948 0)
(5.98771 0.654186 0)
(6.04894 0.622375 0)
(6.0303 0.574486 0)
(5.99676 0.538452 0)
(5.99388 0.508454 0)
(6.0374 0.486218 0)
(6.17186 0.540146 0)
(6.35769 0.682195 0)
(6.5775 0.870782 0)
(0.849038 -0.0045965 0)
(2.11374 -0.0472129 0)
(2.79844 -0.123982 0)
(2.99793 -0.222448 0)
(2.93317 -0.326734 0)
(2.87447 -0.410146 0)
(2.91722 -0.469226 0)
(2.92725 -0.532023 0)
(2.83231 -0.603894 0)
(2.67754 -0.669568 0)
(2.58679 -0.702739 0)
(2.56734 -0.71715 0)
(2.59972 -0.721267 0)
(2.746 -0.681965 0)
(3.001 -0.592001 0)
(3.31238 -0.474249 0)
(3.6826 -0.336177 0)
(4.10252 -0.183642 0)
(4.51514 -0.0289424 0)
(4.90768 0.136545 0)
(5.28707 0.312259 0)
(5.63347 0.473602 0)
(5.9029 0.584112 0)
(6.06259 0.619869 0)
(6.13727 0.605957 0)
(6.1328 0.55919 0)
(6.09458 0.505785 0)
(6.09384 0.473565 0)
(6.13567 0.441212 0)
(6.25075 0.428084 0)
(6.44337 0.485059 0)
(6.66538 0.611767 0)
(6.9585 0.806617 0)
(0.941044 -0.00415346 0)
(2.33747 -0.0424755 0)
(3.11485 -0.115653 0)
(3.35808 -0.214069 0)
(3.2929 -0.321544 0)
(3.16113 -0.419061 0)
(3.15507 -0.482731 0)
(3.18126 -0.542119 0)
(3.12573 -0.617466 0)
(2.98018 -0.702978 0)
(2.85198 -0.764637 0)
(2.80692 -0.788412 0)
(2.80124 -0.797814 0)
(2.87016 -0.782282 0)
(3.06781 -0.716878 0)
(3.34858 -0.61241 0)
(3.6758 -0.482137 0)
(4.06511 -0.327486 0)
(4.48409 -0.169346 0)
(4.88509 -0.017512 0)
(5.27454 0.147324 0)
(5.6405 0.317746 0)
(5.95084 0.463679 0)
(6.15289 0.54651 0)
(6.24103 0.563597 0)
(6.24189 0.54009 0)
(6.18552 0.490308 0)
(6.15555 0.451414 0)
(6.19578 0.428839 0)
(6.30907 0.399355 0)
(6.51145 0.389595 0)
(6.75164 0.427312 0)
(7.0335 0.545827 0)
(7.39546 0.744591 0)
(1.01946 -0.00359404 0)
(2.5361 -0.0367834 0)
(3.41271 -0.104751 0)
(3.71194 -0.202671 0)
(3.66458 -0.312757 0)
(3.48958 -0.422449 0)
(3.40121 -0.500398 0)
(3.42027 -0.553086 0)
(3.39443 -0.621045 0)
(3.279 -0.71143 0)
(3.12864 -0.802223 0)
(3.05138 -0.854234 0)
(3.03143 -0.874052 0)
(3.04727 -0.875335 0)
(3.17614 -0.835976 0)
(3.42356 -0.752018 0)
(3.72398 -0.638618 0)
(4.06354 -0.492386 0)
(4.44963 -0.319072 0)
(4.84162 -0.153778 0)
(5.23194 0.00171329 0)
(5.62435 0.163682 0)
(5.9793 0.318819 0)
(6.24432 0.435015 0)
(6.36686 0.484522 0)
(6.37089 0.487079 0)
(6.30347 0.459629 0)
(6.22939 0.423534 0)
(6.22531 0.41217 0)
(6.31993 0.408518 0)
(6.53211 0.390113 0)
(6.81485 0.362625 0)
(7.1081 0.370629 0)
(7.46481 0.492403 0)
(7.84861 0.668595 0)
(1.08213 -0.00294602 0)
(2.70406 -0.0300786 0)
(3.68299 -0.0909569 0)
(4.05335 -0.186419 0)
(4.03622 -0.299471 0)
(3.85536 -0.417362 0)
(3.68481 -0.517697 0)
(3.65904 -0.57462 0)
(3.65164 -0.629693 0)
(3.57073 -0.710247 0)
(3.42159 -0.813042 0)
(3.30235 -0.898023 0)
(3.26108 -0.940518 0)
(3.25144 -0.95757 0)
(3.31802 -0.942887 0)
(3.52097 -0.881572 0)
(3.80536 -0.788795 0)
(4.11371 -0.668231 0)
(4.45649 -0.50377 0)
(4.82022 -0.315069 0)
(5.18008 -0.13899 0)
(5.56717 0.028015 0)
(5.96097 0.184014 0)
(6.29752 0.313013 0)
(6.49611 0.385573 0)
(6.52665 0.400547 0)
(6.45104 0.392245 0)
(6.34463 0.370973 0)
(6.28358 0.362494 0)
(6.32256 0.386193 0)
(6.5011 0.415184 0)
(6.81556 0.404513 0)
(7.16248 0.338785 0)
(7.52317 0.325055 0)
(7.93265 0.442533 0)
(8.28121 0.560281 0)
(1.12724 -0.0021552 0)
(2.83631 -0.0225505 0)
(3.91661 -0.0744301 0)
(4.37196 -0.164564 0)
(4.39828 -0.279252 0)
(4.23453 -0.402892 0)
(4.01893 -0.523487 0)
(3.91357 -0.603209 0)
(3.90825 -0.651379 0)
(3.85538 -0.717014 0)
(3.73132 -0.812019 0)
(3.58192 -0.918379 0)
(3.49929 -0.991204 0)
(3.46833 -1.02722 0)
(3.48347 -1.03498 0)
(3.62883 -0.99713 0)
(3.89513 -0.920934 0)
(4.19289 -0.826082 0)
(4.49939 -0.696362 0)
(4.83466 -0.515123 0)
(5.16812 -0.315987 0)
(5.51156 -0.123097 0)
(5.89961 0.0582787 0)
(6.28423 0.204714 0)
(6.57583 0.295807 0)
(6.68191 0.31573 0)
(6.62665 0.299314 0)
(6.50199 0.284658 0)
(6.39001 0.279605 0)
(6.36598 0.307765 0)
(6.48278 0.374158 0)
(6.77033 0.441298 0)
(7.16246 0.421667 0)
(7.56303 0.316678 0)
(7.98645 0.290351 0)
(8.39812 0.375745 0)
(8.67825 0.413776 0)
(1.1542 -0.00131304 0)
(2.92939 -0.0144668 0)
(4.10541 -0.0558409 0)
(4.65712 -0.137257 0)
(4.74202 -0.250896 0)
(4.60528 -0.37883 0)
(4.38742 -0.511598 0)
(4.20262 -0.623147 0)
(4.16405 -0.683277 0)
(4.13751 -0.737694 0)
(4.04495 -0.817147 0)
(3.89383 -0.924253 0)
(3.76658 -1.02374 0)
(3.70661 -1.08559 0)
(3.68331 -1.11562 0)
(3.75532 -1.10277 0)
(3.9785 -1.03977 0)
(4.27326 -0.956387 0)
(4.56397 -0.860177 0)
(4.86654 -0.71801 0)
(5.18422 -0.525693 0)
(5.49579 -0.316958 0)
(5.84509 -0.10282 0)
(6.23142 0.0885037 0)
(6.58214 0.218634 0)
(6.78603 0.260939 0)
(6.79311 0.229502 0)
(6.68548 0.187876 0)
(6.54798 0.170375 0)
(6.46098 0.1899 0)
(6.5099 0.261302 0)
(6.74306 0.375691 0)
(7.13361 0.468472 0)
(7.57317 0.425353 0)
(8.01789 0.2953 0)
(8.47005 0.251792 0)
(8.83436 0.273583 0)
(9.04331 0.241988 0)
(1.16377 -0.000451574 0)
(2.98309 -0.00650543 0)
(4.24405 -0.0362939 0)
(4.89895 -0.105752 0)
(5.05914 -0.21434 0)
(4.95759 -0.345029 0)
(4.7596 -0.483797 0)
(4.53353 -0.620282 0)
(4.42263 -0.711988 0)
(4.41252 -0.766628 0)
(4.35234 -0.835406 0)
(4.22431 -0.930087 0)
(4.06634 -1.04074 0)
(3.96814 -1.12832 0)
(3.92279 -1.1842 0)
(3.93174 -1.20277 0)
(4.07733 -1.16027 0)
(4.34309 -1.07577 0)
(4.62844 -0.988629 0)
(4.90649 -0.886004 0)
(5.20471 -0.730735 0)
(5.50229 -0.53291 0)
(5.81513 -0.31052 0)
(6.18307 -0.0775146 0)
(6.55396 0.113328 0)
(6.8284 0.214275 0)
(6.9145 0.203779 0)
(6.85105 0.133371 0)
(6.7294 0.0719834 0)
(6.61076 0.0549108 0)
(6.59158 0.106477 0)
(6.75677 0.225728 0)
(7.11411 0.383134 0)
(7.57464 0.479473 0)
(8.04289 0.411178 0)
(8.51402 0.266138 0)
(8.94601 0.185366 0)
(9.22879 0.131517 0)
(9.40895 0.0675818 0)
(1.15807 0.000317774 0)
(3.00014 0.000670204 0)
(4.33207 -0.0171831 0)
(5.0894 -0.0721238 0)
(5.34115 -0.171024 0)
(5.28854 -0.301192 0)
(5.11454 -0.44424 0)
(4.88931 -0.592742 0)
(4.7035 -0.720612 0)
(4.66886 -0.794176 0)
(4.64744 -0.858953 0)
(4.55182 -0.944285 0)
(4.39133 -1.05144 0)
(4.25038 -1.15522 0)
(4.18244 -1.23332 0)
(4.16016 -1.28565 0)
(4.22716 -1.28342 0)
(4.42918 -1.20981 0)
(4.69172 -1.10995 0)
(4.94809 -1.01638 0)
(5.21775 -0.899764 0)
(5.50826 -0.734443 0)
(5.80056 -0.531385 0)
(6.1399 -0.29165 0)
(6.51957 -0.0505286 0)
(6.84289 0.123676 0)
(7.00091 0.180011 0)
(6.9821 0.125099 0)
(6.88952 0.0318241 0)
(6.78171 -0.0454267 0)
(6.72512 -0.055492 0)
(6.8251 0.0333968 0)
(7.1245 0.199428 0)
(7.57532 0.384118 0)
(8.07254 0.46837 0)
(8.56045 0.378263 0)
(9.02845 0.210295 0)
(9.38638 0.0726434 0)
(9.60508 -0.0358357 0)
(9.82221 -0.0921256 0)
(1.13968 0.000946956 0)
(2.98557 0.00671469 0)
(4.37289 5.77206e-05 0)
(5.22442 -0.0392882 0)
(5.57937 -0.123473 0)
(5.59378 -0.248359 0)
(5.44919 -0.394484 0)
(5.24202 -0.547987 0)
(5.01798 -0.700047 0)
(4.91505 -0.808593 0)
(4.91934 -0.878283 0)
(4.86284 -0.961374 0)
(4.72353 -1.06281 0)
(4.55025 -1.17299 0)
(4.44793 -1.26451 0)
(4.41201 -1.33884 0)
(4.42754 -1.3837 0)
(4.55417 -1.35333 0)
(4.77555 -1.25479 0)
(5.0065 -1.14467 0)
(5.23484 -1.03751 0)
(5.4987 -0.901735 0)
(5.78469 -0.728867 0)
(6.10047 -0.51541 0)
(6.47437 -0.261762 0)
(6.83607 -0.0295209 0)
(7.06977 0.107363 0)
(7.10758 0.111739 0)
(7.02882 0.0296004 0)
(6.93512 -0.0754435 0)
(6.8766 -0.160405 0)
(6.93828 -0.154006 0)
(7.1831 -0.0275008 0)
(7.59371 0.175152 0)
(8.09818 0.369905 0)
(8.6156 0.434168 0)
(9.11083 0.31777 0)
(9.52169 0.109173 0)
(9.79621 -0.0801933 0)
(10.0128 -0.207265 0)
(10.2963 -0.231128 0)
(1.11095 0.00149477 0)
(2.9453 0.0116169 0)
(4.37205 0.0146221 0)
(5.30486 -0.00969079 0)
(5.7661 -0.0753206 0)
(5.86565 -0.189036 0)
(5.76561 -0.334629 0)
(5.57814 -0.492694 0)
(5.35221 -0.654875 0)
(5.1781 -0.797925 0)
(5.16021 -0.888524 0)
(5.15287 -0.97077 0)
(5.04524 -1.07339 0)
(4.86404 -1.1861 0)
(4.71461 -1.28705 0)
(4.66032 -1.36811 0)
(4.65554 -1.44153 0)
(4.71507 -1.47009 0)
(4.88027 -1.41104 0)
(5.09068 -1.29756 0)
(5.28622 -1.17931 0)
(5.49738 -1.05133 0)
(5.75752 -0.895192 0)
(6.05724 -0.711829 0)
(6.41728 -0.483713 0)
(6.80398 -0.22923 0)
(7.10565 -0.0254079 0)
(7.22738 0.0561976 0)
(7.18234 0.014902 0)
(7.08496 -0.0804567 0)
(7.01885 -0.188676 0)
(7.0626 -0.265798 0)
(7.27709 -0.235789 0)
(7.64882 -0.0800087 0)
(8.13315 0.144456 0)
(8.67002 0.334187 0)
(9.20005 0.370438 0)
(9.65374 0.216189 0)
(9.97597 -0.0359131 0)
(10.2168 -0.250974 0)
(10.4739 -0.368593 0)
(10.812 -0.350866 0)
(1.07383 0.00197225 0)
(2.88462 0.0156638 0)
(4.33655 0.026227 0)
(5.33712 0.0154814 0)
(5.89553 -0.0306772 0)
(6.09489 -0.126487 0)
(6.05879 -0.265694 0)
(5.89935 -0.427712 0)
(5.68521 -0.595471 0)
(5.47204 -0.759533 0)
(5.38756 -0.883054 0)
(5.41013 -0.969621 0)
(5.35004 -1.07412 0)
(5.18407 -1.19359 0)
(4.99216 -1.30616 0)
(4.89546 -1.39027 0)
(4.8801 -1.46582 0)
(4.9004 -1.53423 0)
(4.99932 -1.53846 0)
(5.17996 -1.45725 0)
(5.36644 -1.3386 0)
(5.53784 -1.211 0)
(5.74654 -1.05879 0)
(6.01495 -0.882594 0)
(6.34978 -0.681883 0)
(6.74349 -0.441855 0)
(7.10091 -0.203956 0)
(7.31228 -0.0481612 0)
(7.33778 -0.0276384 0)
(7.25795 -0.102404 0)
(7.17656 -0.204652 0)
(7.18574 -0.302565 0)
(7.37205 -0.354114 0)
(7.72763 -0.301829 0)
(8.19268 -0.130241 0)
(8.73033 0.0988351 0)
(9.29083 0.268013 0)
(9.78987 0.26806 0)
(10.1548 0.0712916 0)
(10.4188 -0.206832 0)
(10.6758 -0.420093 0)
(10.9758 -0.515017 0)
(11.3424 -0.454793 0)
(1.03003 0.00236835 0)
(2.80803 0.0188355 0)
(4.27351 0.0353146 0)
(5.33007 0.036096 0)
(5.96843 0.00707792 0)
(6.27138 -0.0655089 0)
(6.3177 -0.190492 0)
(6.20527 -0.35146 0)
(6.00789 -0.526306 0)
(5.78673 -0.700868 0)
(5.63337 -0.854873 0)
(5.63163 -0.960051 0)
(5.63025 -1.05999 0)
(5.49829 -1.18822 0)
(5.29148 -1.31745 0)
(5.13341 -1.41612 0)
(5.08817 -1.48374 0)
(5.08905 -1.55544 0)
(5.12938 -1.609 0)
(5.2612 -1.586 0)
(5.44309 -1.49357 0)
(5.60545 -1.37625 0)
(5.77204 -1.2358 0)
(5.99829 -1.0604 0)
(6.29417 -0.863776 0)
(6.6637 -0.641173 0)
(7.05117 -0.398827 0)
(7.3437 -0.194053 0)
(7.46387 -0.100789 0)
(7.43521 -0.135741 0)
(7.36142 -0.23609 0)
(7.34009 -0.337996 0)
(7.47022 -0.406981 0)
(7.79659 -0.423324 0)
(8.26061 -0.356485 0)
(8.80327 -0.183853 0)
(9.38572 0.0284337 0)
(9.92629 0.165019 0)
(10.3402 0.124483 0)
(10.6266 -0.105382 0)
(10.8808 -0.382825 0)
(11.1697 -0.578085 0)
(11.492 -0.647009 0)
(11.8671 -0.545905 0)
(0.981381 0.00270999 0)
(2.71974 0.0211692 0)
(4.18954 0.0422316 0)
(5.29076 0.0525225 0)
(5.9947 0.037329 0)
(6.38827 -0.0119833 0)
(6.52991 -0.114025 0)
(6.48501 -0.264893 0)
(6.31892 -0.444678 0)
(6.10385 -0.628968 0)
(5.91142 -0.803395 0)
(5.84383 -0.938377 0)
(5.87034 -1.0382 0)
(5.79751 -1.16336 0)
(5.60368 -1.31076 0)
(5.39765 -1.43772 0)
(5.29482 -1.51437 0)
(5.2716 -1.56987 0)
(5.26908 -1.63268 0)
(5.33393 -1.65988 0)
(5.49416 -1.61323 0)
(5.6676 -1.52169 0)
(5.81665 -1.40624 0)
(6.00535 -1.24926 0)
(6.26893 -1.05467 0)
(6.5986 -0.837004 0)
(6.97336 -0.595308 0)
(7.31513 -0.362655 0)
(7.53172 -0.20567 0)
(7.58884 -0.179053 0)
(7.55343 -0.261989 0)
(7.5271 -0.382415 0)
(7.60738 -0.469709 0)
(7.86974 -0.494061 0)
(8.30825 -0.475462 0)
(8.86593 -0.402654 0)
(9.48336 -0.249336 0)
(10.0637 -0.073812 0)
(10.5252 0.024321 0)
(10.8508 -0.0546101 0)
(11.0985 -0.296393 0)
(11.3697 -0.550377 0)
(11.6758 -0.723918 0)
(12.0033 -0.764643 0)
(12.3726 -0.628187 0)
(0.930144 0.00290423 0)
(2.62407 0.0226516 0)
(4.0904 0.0470755 0)
(5.2248 0.0649599 0)
(5.98703 0.0617208 0)
(6.44897 0.0306151 0)
(6.68591 -0.0434411 0)
(6.72258 -0.173692 0)
(6.61076 -0.348274 0)
(6.41199 -0.542931 0)
(6.20893 -0.732422 0)
(6.07947 -0.89721 0)
(6.07554 -1.01441 0)
(6.06416 -1.12593 0)
(5.91166 -1.27878 0)
(5.69069 -1.43644 0)
(5.52333 -1.54845 0)
(5.45773 -1.60402 0)
(5.42241 -1.64971 0)
(5.41655 -1.69212 0)
(5.51795 -1.68447 0)
(5.69614 -1.62403 0)
(5.8562 -1.54123 0)
(6.01902 -1.42193 0)
(6.25545 -1.24787 0)
(6.55935 -1.03878 0)
(6.90455 -0.80181 0)
(7.25175 -0.550555 0)
(7.5323 -0.34068 0)
(7.68652 -0.241397 0)
(7.72586 -0.277798 0)
(7.72865 -0.403763 0)
(7.78501 -0.534264 0)
(7.98168 -0.589395 0)
(8.36018 -0.562434 0)
(8.89952 -0.513647 0)
(9.55371 -0.447374 0)
(10.1977 -0.337165 0)
(10.7086 -0.210695 0)
(11.0805 -0.151094 0)
(11.345 -0.257693 0)
(11.585 -0.485609 0)
(11.8698 -0.706594 0)
(12.1754 -0.858345 0)
(12.499 -0.869321 0)
(12.8492 -0.706032 0)
(0.878633 0.00289537 0)
(2.52563 0.0231798 0)
(3.98205 0.0497356 0)
(5.13788 0.0735197 0)
(5.95321 0.0813818 0)
(6.46744 0.0632647 0)
(6.78312 0.0148327 0)
(6.9071 -0.0865866 0)
(6.86612 -0.242591 0)
(6.70384 -0.43843 0)
(6.50415 -0.642658 0)
(6.34373 -0.831611 0)
(6.28041 -0.980757 0)
(6.2843 -1.09096 0)
(6.19688 -1.22664 0)
(5.99171 -1.4013 0)
(5.78321 -1.55761 0)
(5.66063 -1.64832 0)
(5.59371 -1.68927 0)
(5.5322 -1.72153 0)
(5.54497 -1.72873 0)
(5.68691 -1.68582 0)
(5.8648 -1.62369 0)
(6.02489 -1.54806 0)
(6.23708 -1.41739 0)
(6.52492 -1.23102 0)
(6.84957 -1.01066 0)
(7.18605 -0.760339 0)
(7.49474 -0.513492 0)
(7.72083 -0.340671 0)
(7.84699 -0.300726 0)
(7.91494 -0.394497 0)
(7.98952 -0.557513 0)
(8.1431 -0.684294 0)
(8.44831 -0.694359 0)
(8.93726 -0.615824 0)
(9.58923 -0.545507 0)
(10.2957 -0.505881 0)
(10.8848 -0.456982 0)
(11.3068 -0.380243 0)
(11.6092 -0.353981 0)
(11.838 -0.469727 0)
(12.0802 -0.665269 0)
(12.3648 -0.853726 0)
(12.6603 -0.982128 0)
(12.9712 -0.964752 0)
(13.2956 -0.781788 0)
(0.829018 0.0027308 0)
(2.42835 0.0226861 0)
(3.87092 0.0502654 0)
(5.03636 0.0780753 0)
(5.89491 0.0960275 0)
(6.45884 0.0893767 0)
(6.82875 0.0589022 0)
(7.03658 -0.0116438 0)
(7.07078 -0.139243 0)
(6.96633 -0.31939 0)
(6.78314 -0.531079 0)
(6.61487 -0.739667 0)
(6.50851 -0.922442 0)
(6.47818 -1.05758 0)
(6.43833 -1.17478 0)
(6.27818 -1.33752 0)
(6.05877 -1.52322 0)
(5.88453 -1.66764 0)
(5.78149 -1.74011 0)
(5.68565 -1.77182 0)
(5.61454 -1.78013 0)
(5.67199 -1.7407 0)
(5.83871 -1.67222 0)
(6.00847 -1.615 0)
(6.20418 -1.53555 0)
(6.48013 -1.39201 0)
(6.79604 -1.19985 0)
(7.12033 -0.970969 0)
(7.44181 -0.71764 0)
(7.71796 -0.492915 0)
(7.91569 -0.367338 0)
(8.05734 -0.383191 0)
(8.18589 -0.528721 0)
(8.34462 -0.719545 0)
(8.59286 -0.830547 0)
(9.00824 -0.7874 0)
(9.62569 -0.660804 0)
(10.3559 -0.58623 0)
(11.0245 -0.59471 0)
(11.521 -0.610311 0)
(11.871 -0.574522 0)
(12.122 -0.573305 0)
(12.3304 -0.678638 0)
(12.5726 -0.835212 0)
(12.8463 -0.993595 0)
(13.1249 -1.09783 0)
(13.4167 -1.05438 0)
(13.7153 -0.855977 0)
(0.783027 0.00244384 0)
(2.33506 0.0214255 0)
(3.76234 0.0489407 0)
(4.92811 0.0787046 0)
(5.81425 0.104634 0)
(6.42947 0.110685 0)
(6.83773 0.092068 0)
(7.11332 0.047146 0)
(7.22377 -0.0483396 0)
(7.18466 -0.199854 0)
(7.03784 -0.401017 0)
(6.87084 -0.621337 0)
(6.74869 -0.830156 0)
(6.67854 -1.0046 0)
(6.63723 -1.13319 0)
(6.53162 -1.26805 0)
(6.32685 -1.45164 0)
(6.12051 -1.63606 0)
(5.97599 -1.76413 0)
(5.86115 -1.82695 0)
(5.73905 -1.84868 0)
(5.69541 -1.81891 0)
(5.80362 -1.73319 0)
(5.97316 -1.65323 0)
(6.15614 -1.59536 0)
(6.41541 -1.50078 0)
(6.73199 -1.35035 0)
(7.05249 -1.15648 0)
(7.37703 -0.923791 0)
(7.68985 -0.683054 0)
(7.9493 -0.49632 0)
(8.15891 -0.420953 0)
(8.34898 -0.489681 0)
(8.54776 -0.679862 0)
(8.78791 -0.889139 0)
(9.13667 -0.973241 0)
(9.688 -0.869712 0)
(10.4087 -0.706557 0)
(11.1269 -0.652797 0)
(11.7017 -0.719864 0)
(12.1131 -0.786822 0)
(12.4091 -0.783205 0)
(12.6213 -0.797002 0)
(12.8191 -0.8792 0)
(13.0551 -0.997381 0)
(13.3092 -1.12832 0)
(13.5659 -1.20757 0)
(13.8376 -1.14014 0)
(14.1119 -0.928015 0)
(0.741548 0.00211553 0)
(2.24744 0.0196262 0)
(3.65955 0.0464086 0)
(4.82137 0.0760462 0)
(5.71823 0.106823 0)
(6.37781 0.125835 0)
(6.82446 0.118683 0)
(7.14397 0.0907696 0)
(7.32866 0.0258298 0)
(7.35418 -0.0933891 0)
(7.25949 -0.266971 0)
(7.1046 -0.482521 0)
(6.97677 -0.705468 0)
(6.88939 -0.912728 0)
(6.82196 -1.0809 0)
(6.74137 -1.21188 0)
(6.57482 -1.36813 0)
(6.35378 -1.5606 0)
(6.16898 -1.73372 0)
(6.03331 -1.84862 0)
(5.89531 -1.9087 0)
(5.77853 -1.91267 0)
(5.79451 -1.83537 0)
(5.93645 -1.71714 0)
(6.10785 -1.63282 0)
(6.33858 -1.55968 0)
(6.64871 -1.44927 0)
(6.97432 -1.29818 0)
(7.30356 -1.10375 0)
(7.6418 -0.877591 0)
(7.95259 -0.666776 0)
(8.22503 -0.525217 0)
(8.48014 -0.50001 0)
(8.72948 -0.619271 0)
(8.99557 -0.846853 0)
(9.31907 -1.06485 0)
(9.79793 -1.10583 0)
(10.4719 -0.939838 0)
(11.2099 -0.764904 0)
(11.8484 -0.752726 0)
(12.3226 -0.872584 0)
(12.6686 -0.974132 0)
(12.9218 -0.996893 0)
(13.1096 -1.01636 0)
(13.2998 -1.0703 0)
(13.5208 -1.15405 0)
(13.7493 -1.25955 0)
(13.9839 -1.31232 0)
(14.2354 -1.22248 0)
(14.4877 -0.997648 0)
(0.70494 0.00174562 0)
(2.16597 0.0176369 0)
(3.56329 0.0433211 0)
(4.72203 0.0715288 0)
(5.61707 0.103262 0)
(6.30415 0.132525 0)
(6.7945 0.139722 0)
(7.14245 0.123506 0)
(7.38721 0.0830264 0)
(7.4788 -0.00493233 0)
(7.43964 -0.145134 0)
(7.31572 -0.337418 0)
(7.18373 -0.559249 0)
(7.09167 -0.782156 0)
(7.01027 -0.989091 0)
(6.92021 -1.15452 0)
(6.79121 -1.29555 0)
(6.57938 -1.46923 0)
(6.35892 -1.65745 0)
(6.18924 -1.81463 0)
(6.04587 -1.9233 0)
(5.90187 -1.98108 0)
(5.83326 -1.9559 0)
(5.91575 -1.83486 0)
(6.07306 -1.70194 0)
(6.27191 -1.60621 0)
(6.5572 -1.50909 0)
(6.88269 -1.39027 0)
(7.21742 -1.23898 0)
(7.57584 -1.04739 0)
(7.93124 -0.843303 0)
(8.2567 -0.672364 0)
(8.57242 -0.575564 0)
(8.88222 -0.601402 0)
(9.1894 -0.767377 0)
(9.52325 -1.02707 0)
(9.9546 -1.23637 0)
(10.5605 -1.21335 0)
(11.2819 -1.00017 0)
(11.9659 -0.84286 0)
(12.5043 -0.880447 0)
(12.8937 -1.03949 0)
(13.1902 -1.16291 0)
(13.4133 -1.20739 0)
(13.5866 -1.22629 0)
(13.7658 -1.25242 0)
(13.964 -1.30673 0)
(14.1655 -1.38684 0)
(14.3793 -1.41223 0)
(14.6112 -1.30121 0)
(14.844 -1.06432 0)
(0.673344 0.0013888 0)
(2.09085 0.0155247 0)
(3.47226 0.0400462 0)
(4.63201 0.0666314 0)
(5.52075 0.0961711 0)
(6.21522 0.130311 0)
(6.74605 0.152589 0)
(7.12325 0.148845 0)
(7.40563 0.125131 0)
(7.56329 0.0659447 0)
(7.57671 -0.0431167 0)
(7.49711 -0.201909 0)
(7.3733 -0.406569 0)
(7.27375 -0.628973 0)
(7.19394 -0.853113 0)
(7.09205 -1.06181 0)
(6.97075 -1.22756 0)
(6.79209 -1.38375 0)
(6.55152 -1.56516 0)
(6.33767 -1.73889 0)