/*--------------------------------*- C++ -*----------------------------------*\
| =========                 |                                                 |
| \\      /  F ield         | OpenFOAM: The Open Source CFD Toolbox           |
|  \\    /   O peration     | Version:  2412                                  |
|   \\  /    A nd           | Website:  www.openfoam.com                      |
|    \\/     M anipulation  |                                                 |
\*---------------------------------------------------------------------------*/
FoamFile
{
    version     2.0;
    format      ascii;
    arch        "LSB;label=32;scalar=64";
    class       volScalarField;
    location    "0.1";
    object      dpdt;
}
// * * * * * * * * * * * * * * * * * * * * * * * * * * * * * * * * * * * * * //

dimensions      [1 -1 -3 0 0 0 0];

internalField   nonuniform List<scalar> 
12008
(
41958.54467
41958.54189
41958.54
41958.54059
41958.54409
41958.55075
41958.56079
41958.57448
41958.59213
41958.61409
41958.64071
41958.67233
41958.70925
41958.75168
41958.79971
41958.85328
41958.91215
41958.97587
41959.04378
41959.11499
41959.18839
41959.26271
41959.33657
41959.40855
41959.47725
41959.5414
41959.59989
41959.65186
41959.69668
41959.73403
41959.7637
41959.78562
41959.80005
41959.8075
41959.80852
41959.80367
41959.79352
41959.77862
41959.75951
41959.73666
41959.71052
41959.68146
41959.64983
41959.6159
41959.57991
41959.54204
41959.50245
41959.46126
41959.41856
41959.37442
41959.32891
41959.28206
41959.23396
41959.18471
41959.13446
41959.08318
41959.03077
41958.97735
41958.92308
41958.86811
41958.81265
41958.75695
41958.70131
41958.64606
41958.59161
41958.53844
41958.48706
41958.43809
41958.39216
41958.35
41958.31235
41958.27998
41958.25365
41958.23407
41958.2219
41958.21766
41958.22171
41958.23424
41958.25519
41958.28428
41958.32095
41958.36445
41958.4138
41958.46785
41958.52535
41958.58499
41958.64548
41958.7056
41958.76434
41958.82084
41958.87452
41958.92498
41958.97205
41959.01568
41959.05594
41959.09293
41959.12684
41959.1579
41959.18638
41959.21254
41959.23662
41959.25884
41959.27938
41959.29839
41959.31601
41959.33235
41959.34748
41959.36148
41959.37441
41959.38632
41959.39725
41959.40723
41959.4163
41959.4245
41959.43185
41959.43838
41959.44413
41959.44913
41959.45342
41959.45704
41959.46003
41959.46246
41959.46437
41959.46583
41959.46688
41959.46758
41959.468
41959.46816
41959.46811
41959.46789
41959.46752
41959.467
41959.46634
41959.46554
41959.46465
41959.46369
41959.46267
41959.46144
41959.46007
41959.45904
41958.54733
41958.54464
41958.54318
41958.54411
41958.54768
41958.55423
41958.56403
41958.57736
41958.59457
41958.61597
41958.64197
41958.67292
41958.7091
41958.75075
41958.79796
41958.85071
41958.90879
41958.97179
41959.03906
41959.10974
41959.18277
41959.25689
41959.33071
41959.4028
41959.47176
41959.53628
41959.59524
41959.64772
41959.69306
41959.73089
41959.76122
41959.78378
41959.79858
41959.80636
41959.80771
41959.80316
41959.79326
41959.77857
41959.7596
41959.73687
41959.71079
41959.68176
41959.65013
41959.61617
41959.58011
41959.54216
41959.50247
41959.46116
41959.41833
41959.37406
41959.3284
41959.28142
41959.23313
41959.18366
41959.1333
41959.08195
41959.02934
41958.97573
41958.92126
41958.86609
41958.81043
41958.75452
41958.69867
41958.64322
41958.58859
41958.53527
41958.48378
41958.43475
41958.38885
41958.34681
41958.30939
41958.27738
41958.25156
41958.23265
41958.22131
41958.21805
41958.22322
41958.23698
41958.25922
41958.28961
41958.32755
41958.37221
41958.42256
41958.47742
41958.53549
41958.59542
41958.65592
41958.71579
41958.774
41958.82977
41958.88255
41958.93201
41958.97802
41959.02061
41959.05988
41959.09598
41959.12911
41959.15948
41959.18735
41959.21297
41959.2366
41959.25844
41959.27866
41959.29741
41959.3148
41959.33095
41959.34593
41959.35981
41959.37264
41959.38447
41959.39535
41959.40531
41959.41437
41959.42257
41959.42994
41959.43649
41959.44227
41959.4473
41959.45162
41959.45528
41959.45832
41959.46078
41959.46273
41959.46423
41959.46532
41959.46606
41959.4665
41959.4667
41959.46668
41959.46649
41959.46614
41959.46565
41959.46502
41959.46425
41959.46337
41959.46247
41959.46162
41959.46079
41959.45976
41959.4587
41958.54945
41958.54641
41958.54489
41958.54579
41958.54915
41958.55531
41958.56456
41958.5772
41958.59356
41958.61409
41958.63913
41958.66909
41958.70428
41958.74497
41958.79132
41958.84334
41958.90088
41958.96358
41959.03085
41959.10184
41959.17547
41959.25047
41959.3254
41959.39876
41959.46906
41959.5349
41959.59509
41959.64867
41959.69493
41959.73347
41959.76417
41959.78723
41959.80237
41959.81006
41959.81129
41959.80659
41959.79649
41959.78157
41959.76237
41959.73939
41959.71307
41959.68382
41959.65197
41959.61781
41959.58157
41959.54345
41959.5036
41959.46213
41959.41915
41959.37473
41959.32893
41959.2818
41959.23334
41959.1836
41959.13313
41959.08169
41959.02885
41958.97497
41958.9202
41958.86468
41958.80861
41958.75223
41958.69586
41958.63984
41958.5846
41958.53062
41958.47847
41958.42878
41958.38225
41958.33965
41958.30178
41958.26948
41958.24357
41958.22484
41958.21395
41958.21147
41958.21775
41958.23293
41958.25688
41958.2892
41958.32921
41958.37601
41958.42846
41958.48529
41958.5451
41958.60646
41958.66798
41958.72841
41958.78673
41958.84216
41958.89424
41958.94271
41958.98754
41959.02887
41959.06691
41959.10191
41959.13396
41959.16328
41959.19021
41959.21504
41959.23798
41959.25923
41959.27897
41959.29731
41959.31436
41959.33023
41959.34498
41959.35867
41959.37135
41959.38306
41959.39384
41959.40372
41959.41272
41959.42087
41959.4282
41959.43473
41959.44048
41959.44549
41959.4498
41959.45344
41959.45647
41959.45893
41959.46087
41959.46237
41959.46346
41959.4642
41959.46465
41959.46485
41959.46483
41959.46463
41959.46428
41959.4638
41959.46319
41959.46245
41959.46158
41959.46064
41959.45979
41959.45905
41959.45823
41959.4573
41958.54973
41958.54628
41958.54442
41958.54497
41958.54783
41958.55329
41958.56164
41958.5732
41958.58841
41958.60767
41958.63141
41958.66006
41958.694
41958.73357
41958.77901
41958.83043
41958.88777
41958.95071
41959.01873
41959.09099
41959.16638
41959.24355
41959.32095
41959.39692
41959.46981
41959.53807
41959.60037
41959.65567
41959.70323
41959.74262
41959.7737
41959.79697
41959.81206
41959.81923
41959.81984
41959.81444
41959.80361
41959.78795
41959.76806
41959.74444
41959.71753
41959.68777
41959.65547
41959.62094
41959.58439
41959.54601
41959.50595
41959.46431
41959.42119
41959.37664
41959.33072
41959.28348
41959.2349
41959.18497
41959.13427
41959.08263
41959.02966
41958.97546
41958.92029
41958.86427
41958.8076
41958.75051
41958.6933
41958.63631
41958.57998
41958.5248
41958.47135
41958.42029
41958.37236
41958.32838
41958.28922
41958.25579
41958.229
41958.20971
41958.1987
41958.19658
41958.20378
41958.22042
41958.24639
41958.2812
41958.3241
41958.37406
41958.42982
41958.48995
41958.5529
41958.61705
41958.68086
41958.74294
41958.8022
41958.85789
41958.90963
41958.95723
41959.00079
41959.04077
41959.07767
41959.11132
41959.14183
41959.16978
41959.19549
41959.21922
41959.24122
41959.26168
41959.28073
41959.29851
41959.3151
41959.33059
41959.34502
41959.35844
41959.3709
41959.38243
41959.39305
41959.40278
41959.41166
41959.41969
41959.4269
41959.43332
41959.43898
41959.4439
41959.44813
41959.45169
41959.45465
41959.45704
41959.45893
41959.46037
41959.46141
41959.46211
41959.46251
41959.46267
41959.46261
41959.46238
41959.46198
41959.46146
41959.46084
41959.46013
41959.4593
41959.45833
41959.45733
41959.45645
41959.45559
41959.45474
41958.54814
41958.54441
41958.54215
41958.54216
41958.54428
41958.54872
41958.55584
41958.566
41958.57965
41958.59724
41958.61924
41958.64616
41958.67848
41958.71665
41958.76101
41958.81181
41958.86909
41958.93267
41959.00205
41959.07645
41959.15469
41959.23529
41959.31652
41959.39648
41959.47326
41959.54508
41959.61043
41959.66813
41959.7174
41959.75784
41959.78939
41959.81247
41959.82693
41959.83328
41959.83282
41959.82621
41959.81415
41959.79729
41959.77628
41959.75165
41959.72384
41959.6933
41959.66035
41959.62528
41959.58831
41959.54962
41959.50932
41959.46751
41959.42426
41959.37963
41959.33363
41959.28632
41959.23768
41959.1877
41959.13654
41959.08463
41959.03162
41958.97709
41958.92142
41958.86478
41958.80732
41958.74928
41958.69092
41958.63259
41958.57472
41958.5178
41958.46243
41958.40931
41958.35922
41958.31305
41958.27176
41958.23636
41958.20789
41958.18734
41958.17564
41958.17352
41958.18147
41958.19971
41958.22807
41958.26603
41958.31273
41958.36696
41958.42731
41958.49216
41958.55971
41958.62809
41958.69548
41958.76026
41958.82123
41958.87765
41958.92926
41958.97593
41959.01798
41959.05683
41959.09231
41959.12386
41959.15253
41959.17876
41959.2029
41959.22525
41959.24605
41959.26548
41959.28368
41959.30075
41959.31676
41959.33176
41959.3458
41959.35889
41959.37108
41959.38236
41959.39277
41959.40232
41959.41102
41959.41888
41959.42593
41959.43218
41959.43768
41959.44245
41959.44653
41959.44997
41959.4528
41959.45507
41959.45685
41959.45818
41959.45912
41959.45973
41959.46004
41959.46011
41959.45999
41959.45968
41959.45923
41959.45863
41959.45793
41959.45717
41959.45637
41959.45544
41959.45438
41959.45332
41959.45232
41959.45138
41958.54483
41958.54092
41958.53823
41958.53756
41958.53868
41958.54185
41958.54741
41958.55579
41958.56745
41958.58288
41958.60266
41958.62737
41958.65761
41958.69395
41958.73693
41958.78695
41958.84422
41958.90871
41958.98004
41959.05743
41959.13967
41959.22509
41959.31168
41959.3972
41959.47936
41959.55603
41959.62544
41959.68625
41959.73762
41959.7792
41959.81105
41959.83369
41959.84722
41959.85223
41959.85009
41959.8417
41959.82786
41959.80931
41959.78675
41959.76073
41959.73171
41959.70015
41959.66636
41959.63061
41959.59313
41959.55406
41959.51351
41959.47155
41959.42822
41959.38356
41959.33756
41959.29023
41959.24159
41959.19159
41959.14023
41959.08793
41959.03459
41958.97992
41958.92368
41958.8663
41958.80791
41958.7487
41958.68891
41958.62888
41958.56902
41958.50984
41958.45193
41958.39604
41958.34299
41958.29375
41958.24941
41958.21111
41958.18007
41958.15747
41958.14441
41958.14183
41958.15036
41958.1703
41958.20148
41958.24332
41958.29479
41958.35452
41958.42087
41958.49198
41958.56579
41958.64003
41958.71244
41958.78104
41958.84446
41958.90199
41958.95356
41958.99925
41959.03997
41959.07691
41959.11
41959.13938
41959.16586
41959.19
41959.21223
41959.2329
41959.25225
41959.27046
41959.28764
41959.30386
41959.31919
41959.33363
41959.3472
41959.35992
41959.37178
41959.3828
41959.39296
41959.40228
41959.41076
41959.41842
41959.42526
41959.43131
41959.4366
41959.44115
41959.44503
41959.44827
41959.45092
41959.45303
41959.45464
41959.45582
41959.45661
41959.45707
41959.45725
41959.4572
41959.45695
41959.45654
41959.45599
41959.45532
41959.45453
41959.45366
41959.45277
41959.45184
41959.45081
41959.44968
41959.44854
41959.4475
41958.54012
41958.53611
41958.53298
41958.53147
41958.53136
41958.53297
41958.53664
41958.54282
41958.552
41958.56476
41958.58173
41958.60362
41958.63117
41958.66515
41958.70627
41958.75518
41958.81233
41958.8779
41958.95168
41959.03295
41959.12044
41959.21225
41959.306
41959.39892
41959.4882
41959.57122
41959.64583
41959.71051
41959.76435
41959.80708
41959.83893
41959.86061
41959.87286
41959.87605
41959.87148
41959.86063
41959.84443
41959.82365
41959.79908
41959.7713
41959.74078
41959.70795
41959.67314
41959.63661
41959.59854
41959.55907
41959.51828
41959.4762
41959.43286
41959.38825
41959.34234
41959.29512
41959.24656
41959.19662
41959.14527
41959.09253
41959.03892
41958.98388
41958.92716
41958.86902
41958.80959
41958.74903
41958.68756
41958.62549
41958.56322
41958.50124
41958.44016
41958.38074
41958.32388
41958.27063
41958.22222
41958.17996
41958.1453
41958.11969
41958.10448
41958.10088
41958.10974
41958.13148
41958.16597
41958.2125
41958.26986
41958.33645
41958.41037
41958.48954
41958.57152
41958.65354
41958.73265
41958.80627
41958.87282
41958.93164
41958.98294
41959.02713
41959.06628
41959.10111
41959.13121
41959.15774
41959.18148
41959.2031
41959.22309
41959.2418
41959.25948
41959.2763
41959.29232
41959.30761
41959.32218
41959.33601
41959.34909
41959.3614
41959.37292
41959.38363
41959.39353
41959.4026
41959.41084
41959.41826
41959.42486
41959.43068
41959.43572
41959.44003
41959.44364
41959.44662
41959.44904
41959.45092
41959.45231
41959.45328
41959.45387
41959.45415
41959.45415
41959.45393
41959.45351
41959.45295
41959.45227
41959.45149
41959.45062
41959.44964
41959.44862
41959.44759
41959.44653
41959.4454
41959.44421
41959.4431
41958.53445
41958.53038
41958.52676
41958.52428
41958.52275
41958.52249
41958.5239
41958.52743
41958.5336
41958.54307
41958.55656
41958.57489
41958.599
41958.62984
41958.66842
41958.71567
41958.77237
41958.83902
41958.91565
41959.00171
41959.09584
41959.19591
41959.29896
41959.40155
41959.50007
41959.59121
41959.67234
41959.74167
41959.79828
41959.84205
41959.87339
41959.89315
41959.90374
41959.90482
41959.89677
41959.88266
41959.86344
41959.83987
41959.81282
41959.78289
41959.75058
41959.71626
41959.68028
41959.64286
41959.60417
41959.5643
41959.5233
41959.48119
41959.43793
41959.39349
41959.34781
41959.30083
41959.25249
41959.20273
41959.15151
41959.09877
41959.04457
41958.98906
41958.93213
41958.87321
41958.81264
41958.75059
41958.68722
41958.62282
41958.55773
41958.49244
41958.42754
41958.36381
41958.30222
41958.24391
41958.19026
41958.14282
41958.10331
41958.0735
41958.05515
41958.04981
41958.05866
41958.0823
41958.12064
41958.17283
41958.23736
41958.31232
41958.39557
41958.48482
41958.5773
41958.66947
41958.7573
41958.83729
41958.9075
41958.96751
41959.01804
41959.05987
41959.09694
41959.12911
41959.15533
41959.17825
41959.19872
41959.21741
41959.23484
41959.25137
41959.26722
41959.28253
41959.29735
41959.31166
41959.32545
41959.33867
41959.35126
41959.36316
41959.37435
41959.38477
41959.3944
41959.40321
41959.4112
41959.41836
41959.42471
41959.43025
41959.43502
41959.43905
41959.44238
41959.44505
41959.44715
41959.44875
41959.44987
41959.45058
41959.45092
41959.45095
41959.45073
41959.45029
41959.44968
41959.44892
41959.44805
41959.44711
41959.44612
41959.44506
41959.44393
41959.44277
41959.44164
41959.44047
41959.43926
41959.43814
41958.52832
41958.52419
41958.52003
41958.51643
41958.5133
41958.51089
41958.50965
41958.51003
41958.51262
41958.5181
41958.52731
41958.54121
41958.56091
41958.58763
41958.6227
41958.66744
41958.72307
41958.79054
41958.87029
41958.96202
41959.06439
41959.17493
41959.29
41959.40509
41959.51549
41959.61691
41959.70604
41959.78083
41959.8404
41959.8849
41959.9152
41959.93254
41959.93985
41959.93726
41959.92527
41959.90729
41959.8844
41959.85745
41959.82744
41959.79495
41959.76065
41959.72457
41959.68728
41959.64892
41959.60959
41959.56937
41959.52824
41959.4862
41959.44316
41959.39906
41959.35378
41959.30723
41959.2593
41959.20989
41959.15893
41959.10633
41959.05194
41958.99608
41958.93854
41958.87917
41958.81742
41958.75378
41958.68835
41958.62136
41958.55309
41958.48399
41958.41463
41958.3458
41958.27848
41958.21395
41958.15374
41958.09966
41958.05379
41958.01834
41957.99557
41957.98754
41957.99589
41958.02151
41958.06437
41958.12335
41958.19652
41958.2815
41958.37597
41958.47758
41958.58337
41958.6888
41958.78793
41958.8757
41958.9499
41959.01044
41959.05953
41959.09826
41959.13148
41959.15928
41959.18108
41959.19981
41959.21652
41959.23193
41959.24656
41959.26077
41959.27474
41959.28854
41959.30217
41959.31557
41959.32864
41959.34131
41959.35347
41959.36503
41959.37592
41959.38608
41959.39547
41959.40404
41959.41179
41959.41869
41959.42476
41959.43001
41959.43447
41959.43818
41959.44119
41959.44354
41959.44528
41959.44652
41959.44732
41959.44771
41959.44775
41959.44749
41959.44698
41959.44628
41959.44543
41959.44445
41959.44337
41959.44222
41959.44105
41959.43986
41959.43863
41959.43737
41959.43614
41959.43492
41959.4337
41959.43258
41958.52227
41958.5181
41958.51334
41958.50849
41958.50353
41958.49871
41958.49442
41958.49117
41958.48954
41958.49028
41958.4943
41958.50271
41958.51682
41958.53815
41958.5684
41958.60939
41958.66293
41958.7306
41958.81346
41958.91168
41959.02407
41959.14782
41959.27833
41959.40964
41959.53531
41959.64965
41959.74849
41959.82949
41959.89198
41959.9366
41959.9649
41959.97888
41959.98123
41959.97328
41959.95658
41959.93395
41959.9067
41959.87582
41959.84242
41959.80709
41959.77029
41959.73234
41959.69365
41959.65431
41959.61437
41959.57386
41959.53273
41959.4909
41959.44827
41959.40471
41959.36007
41959.31418
41959.2669
41959.21808
41959.16761
41959.11535
41959.06113
41959.00489
41958.94704
41958.88703
41958.82433
41958.75909
41958.6915
41958.62173
41958.54998
41958.47662
41958.40218
41958.32741
41958.25333
41958.18128
41958.11298
41958.05055
41957.99648
41957.95355
41957.92469
41957.9127
41957.91987
41957.94756
41957.99576
41958.06295
41958.14642
41958.24312
41958.3506
41958.46698
41958.58955
41958.71251
41958.82637
41958.92342
41959.00147
41959.0608
41959.10746
41959.14161
41959.16882
41959.19035
41959.20691
41959.22086
41959.23338
41959.24527
41959.25703
41959.26893
41959.2811
41959.29353
41959.30613
41959.31877
41959.3313
41959.34357
41959.35543
41959.36677
41959.37747
41959.38745
41959.39665
41959.40502
41959.41254
41959.4192
41959.42499
41959.42993
41959.43407
41959.43743
41959.44007
41959.44205
41959.44343
41959.44426
41959.44464
41959.44467
41959.44435
41959.44375
41959.44291
41959.4419
41959.44075
41959.43951
41959.43819
41959.43682
41959.43544
41959.43407
41959.43271
41959.43135
41959.43002
41959.42875
41959.42751
41959.42641
41958.51688
41958.5127
41958.50733
41958.50117
41958.49416
41958.48662
41958.47892
41958.47151
41958.46501
41958.46018
41958.45801
41958.45972
41958.46682
41958.48115
41958.50485
41958.54035
41958.5902
41958.6569
41958.74242
41958.84775
41958.97214
41959.11248
41959.26295
41959.41538
41959.56078
41959.69136
41959.80183
41959.88964
41959.95459
41959.99816
41960.02284
41960.03159
41960.0276
41960.01313
41959.99041
41959.9621
41959.92973
41959.89436
41959.85713
41959.81862
41959.77914
41959.73916
41959.69899
41959.65863
41959.61812
41959.57741
41959.53641
41959.49499
41959.45298
41959.41022
41959.36648
41959.32155
41959.27523
41959.2273
41959.17759
41959.12594
41959.07216
41959.01604
41958.95773
41958.89711
41958.83396
41958.76708
41958.69729
41958.62464
41958.54919
41958.47121
41958.39113
41958.30963
41958.22769
41958.14673
41958.06863
41957.9958
41957.93126
41957.8785
41957.84137
41957.82367
41957.82869
41957.85849
41957.91316
41957.99038
41958.08606
41958.19593
41958.31769
41958.45094
41958.59447
41958.74132
41958.8748
41958.98229
41959.06239
41959.11919
41959.16126
41959.18803
41959.20716
41959.22082
41959.23091
41959.23943
41959.24748
41959.25579
41959.26476
41959.27457
41959.2852
41959.29655
41959.30843
41959.32063
41959.3329
41959.34503
41959.35683
41959.36813
41959.37879
41959.38872
41959.39783
41959.40607
41959.41341
41959.41984
41959.42536
41959.43
41959.43379
41959.43677
41959.43901
41959.44058
41959.44154
41959.44195
41959.44188
41959.44144
41959.44072
41959.43972
41959.43851
41959.43713
41959.43564
41959.43409
41959.43249
41959.43088
41959.42927
41959.42769
41959.42617
41959.42469
41959.42327
41959.42195
41959.42069
41959.4196
41958.51279
41958.50864
41958.50265
41958.49512
41958.48593
41958.47543
41958.46394
41958.4519
41958.43988
41958.42863
41958.41918
41958.41282
41958.41126
41958.41663
41958.43155
41958.45916
41958.50298
41958.56668
41958.65367
41958.76628
41958.90472
41959.06585
41959.24231
41959.42266
41959.59379
41959.74477
41959.86893
41959.96379
41960.03013
41960.07076
41960.08959
41960.09082
41960.0785
41960.05592
41960.02585
41959.99089
41959.95267
41959.91232
41959.87093
41959.82901
41959.78678
41959.74472
41959.70301
41959.66163
41959.62057
41959.57974
41959.539
41959.49817
41959.45703
41959.41534
41959.37282
41959.3292
41959.28418
41959.23751
41959.18893
41959.13822
41959.08517
41959.0295
41958.97101
41958.91034
41958.84655
41958.77826
41958.70643
41958.63093
41958.5517
41958.46886
41958.38269
41958.29373
41958.20289
41958.11154
41958.0217
41957.93609
41957.85829
41957.79269
41957.74433
41957.71849
41957.71993
41957.75187
41957.81463
41957.90445
41958.0145
41958.13827
41958.2739
41958.42498
41958.59419
41958.77564
41958.93633
41959.05536
41959.13474
41959.18619
41959.21638
41959.23483
41959.24401
41959.24806
41959.25076
41959.25348
41959.25704
41959.26195
41959.26844
41959.27651
41959.28603
41959.29674
41959.30834
41959.3205
41959.33291
41959.34526
41959.35731
41959.36884
41959.37969
41959.38973
41959.39889
41959.4071
41959.41433
41959.42058
41959.42586
41959.43019
41959.43362
41959.4362
41959.43801
41959.43911
41959.43959
41959.43953
41959.439
41959.43806
41959.43683
41959.43539
41959.43375
41959.43197
41959.43011
41959.42819
41959.42628
41959.42438
41959.42252
41959.42072
41959.41901
41959.41739
41959.41588
41959.4145
41959.41323
41959.41216
41958.51071
41958.50665
41958.50005
41958.49108
41958.47965
41958.46602
41958.45048
41958.43337
41958.41522
41958.39673
41958.37888
41958.36299
41958.35089
41958.34497
41958.34833
41958.36487
41958.39925
41958.45675
41958.54277
41958.66191
41958.81625
41959.00331
41959.21403
41959.43195
41959.63709
41959.81372
41959.95362
41960.05508
41960.12069
41960.15549
41960.16538
41960.1562
41960.13311
41960.10053
41960.06175
41960.01919
41959.97453
41959.92891
41959.88312
41959.83777
41959.79284
41959.74875
41959.70556
41959.66321
41959.62165
41959.58077
41959.54039
41959.50029
41959.46023
41959.41988
41959.37891
41959.33696
41959.29366
41959.24865
41959.20161
41959.15227
41959.10034
41959.04551
41958.98746
41958.92692
41958.86241
41958.79328
41958.71967
41958.64151
41958.55862
41958.47088
41958.37837
41958.2814
41958.18069
41958.07749
41957.97382
41957.87266
41957.77818
41957.69584
41957.63226
41957.59478
41957.59044
41957.62448
41957.6979
41957.80438
41957.93145
41958.06814
41958.21435
41958.38054
41958.57966
41958.81619
41959.01654
41959.14684
41959.21871
41959.25872
41959.27258
41959.27964
41959.27701
41959.27016
41959.26508
41959.26202
41959.26131
41959.26314
41959.26753
41959.27429
41959.28312
41959.29363
41959.30539
41959.31796
41959.33092
41959.34389
41959.35655
41959.36864
41959.37995
41959.39034
41959.39973
41959.40804
41959.41526
41959.42138
41959.42644
41959.43047
41959.43354
41959.4357
41959.43704
41959.43765
41959.4376
41959.43701
41959.43594
41959.43449
41959.43273
41959.43074
41959.42862
41959.4264
41959.42412
41959.42181
41959.41954
41959.41732
41959.41518
41959.41315
41959.41124
41959.40946
41959.40784
41959.4064
41959.40511
41959.40408
41958.51137
41958.5075
41958.50036
41958.48999
41958.47629
41958.45945
41958.43965
41958.41717
41958.3924
41958.36592
41958.3386
41958.31171
41958.28706
41958.2672
41958.25563
41958.25697
41958.27719
41958.32353
41958.40419
41958.5273
41958.69856
41958.91756
41959.17408
41959.44389
41959.69483
41959.90359
41960.0609
41960.16714
41960.22836
41960.25297
41960.24974
41960.22659
41960.18992
41960.14535
41960.09657
41960.04563
41959.99413
41959.94309
41959.89307
41959.84449
41959.797
41959.75113
41959.70667
41959.66348
41959.62151
41959.58063
41959.54067
41959.50141
41959.46255
41959.42376
41959.38462
41959.3447
41959.30352
41959.26063
41959.21562
41959.16811
41959.11778
41959.0643
41959.0073
41958.94677
41958.88219
41958.81295
41958.73786
41958.65743
41958.5712
41958.4788
41958.37999
41958.27476
41958.16348
41958.0471
41957.92746
41957.80764
41957.69234
41957.58819
41957.50387
41957.44964
41957.43601
41957.47171
41957.55995
41957.69032
41957.83804
41957.98539
41958.12982
41958.30086
41958.53217
41958.86039
41959.12015
41959.26176
41959.31541
41959.33221
41959.33206
41959.32271
41959.30598
41959.28814
41959.27544
41959.26681
41959.26199
41959.26089
41959.26328
41959.26884
41959.27712
41959.28761
41959.29977
41959.31303
41959.32687
41959.3408
41959.35441
41959.36737
41959.37943
41959.39043
41959.40024
41959.40881
41959.41612
41959.42221
41959.42709
41959.43084
41959.43354
41959.43526
41959.4361
41959.43616
41959.43555
41959.43437
41959.43271
41959.43068
41959.42835
41959.42581
41959.42312
41959.42039
41959.41766
41959.41493
41959.41226
41959.40969
41959.40725
41959.40496
41959.40282
41959.40087
41959.39914
41959.39764
41959.39635
41959.39534
41958.51558
41958.51202
41958.50447
41958.49277
41958.47687
41958.45683
41958.43275
41958.40474
41958.37304
41958.33802
41958.30034
41958.26108
41958.22188
41958.18525
41958.15486
41958.13591
41958.13561
41958.16347
41958.23127
41958.35255
41958.53945
41958.79669
41959.11539
41959.45969
41959.77356
41960.02219
41960.19711
41960.304
41960.35471
41960.36281
41960.34098
41960.29956
41960.24632
41960.18789
41960.12809
41960.06837
41960.01004
41959.95382
41959.90007
41959.84871
41959.79904
41959.75184
41959.70653
41959.66276
41959.6205
41959.57971
41959.5402
41959.50179
41959.4642
41959.42708
41959.38997
41959.35237
41959.31369
41959.27337
41959.23086
41959.1857
41959.13749
41959.08584
41959.03032
41958.97064
41958.90684
41958.83756
41958.7617
41958.67968
41958.5908
41958.49436
41958.38973
41958.27645
41958.15434
41958.02382
41957.88625
41957.74447
41957.60343
41957.47092
41957.35814
41957.27943
41957.25051
41957.28601
41957.39528
41957.5637
41957.73889
41957.88491
41958.00413
41958.16047
41958.42684
41958.91716
41959.27852
41959.42674
41959.4343
41959.41945
41959.39492
41959.36584
41959.33518
41959.30802
41959.28814
41959.27373
41959.26432
41959.25962
41959.25934
41959.26305
41959.27026
41959.28034
41959.29264
41959.30649
41959.32122
41959.33622
41959.35097
41959.36504
41959.3781
41959.38992
41959.40036
41959.40936
41959.4169
41959.42303
41959.42779
41959.43129
41959.43361
41959.43486
41959.43517
41959.43466
41959.43343
41959.4316
41959.4293
41959.42663
41959.42367
41959.42052
41959.41727
41959.41397
41959.41071
41959.40753
41959.40443
41959.40148
41959.39871
41959.39613
41959.39376
41959.39164
41959.38979
41959.38822
41959.38692
41959.38594
41958.52412
41958.52102
41958.51326
41958.50039
41958.48245
41958.4594
41958.43117
41958.39772
41958.35904
41958.31525
41958.26666
41958.21398
41958.15848
41958.10233
41958.04897
41958.00378
41957.97482
41957.97378
41958.01669
41958.12464
41958.32114
41958.62122
41959.026
41959.48114
41959.88398
41960.18133
41960.37068
41960.46967
41960.5001
41960.48287
41960.43542
41960.37093
41960.29821
41960.22446
41960.15322
41960.08496
41960.02042
41959.95984
41959.90333
41959.85005
41959.79875
41959.75096
41959.70548
41959.66147
41959.61916
41959.57854
41959.5395
41959.5019
41959.46554
41959.43009
41959.3951
41959.36
41959.32413
41959.28678
41959.24726
41959.20498
41959.15944
41959.11019
41959.05678
41958.99882
41958.9363
41958.86761
41958.7919
41958.70928
41958.6188
41958.51941
41958.41004
41958.28961
41958.15718
41958.0123
41957.85539
41957.68848
41957.51617
41957.34697
41957.19484
41957.07982
41957.02542
41957.05542
41957.19584
41957.43759
41957.64467
41957.77461
41957.81889
41957.90571
41957.97624
41958.8978
41959.64703
41959.70073
41959.58714
41959.52937
41959.47487
41959.42361
41959.37828
41959.34298
41959.31476
41959.29272
41959.2766
41959.26623
41959.26134
41959.26151
41959.26617
41959.27464
41959.28615
41959.29989
41959.31506
41959.3309
41959.34671
41959.36193
41959.3761
41959.3889
41959.40013
41959.4097
41959.41758
41959.42383
41959.42853
41959.43179
41959.43374
41959.43451
41959.43425
41959.43311
41959.43121
41959.4287
41959.42569
41959.42232
41959.41868
41959.41488
41959.411
41959.40711
41959.40328
41959.39956
41959.39601
41959.39267
41959.38953
41959.38663
41959.38403
41959.38174
41959.37976
41959.37812
41959.37681
41959.37586
41958.53776
41958.53526
41958.52751
41958.51376
41958.4941
41958.46839
41958.43641
41958.3979
41958.35258
41958.30021
41958.24068
41958.17413
41958.1012
41958.02329
41957.94307
41957.86527
41957.79791
41957.75404
41957.75352
41957.82717
41958.01745
41958.35763
41958.88105
41959.51128
41960.04388
41960.39331
41960.59161
41960.66778
41960.66279
41960.60807
41960.52679
41960.43416
41960.33966
41960.25003
41960.16787
41960.09224
41960.02297
41959.95959
41959.90198
41959.84807
41959.79617
41959.74868
41959.70396
41959.66023
41959.61815
41959.57785
41959.53926
41959.50237
41959.46709
41959.43319
41959.40027
41959.36774
41959.33486
41959.3008
41959.26469
41959.22581
41959.18351
41959.13729
41959.08665
41959.03123
41958.97069
41958.90348
41958.82901
41958.74708
41958.65648
41958.55583
41958.44354
41958.31779
41958.17669
41958.01847
41957.84203
41957.64766
41957.43849
41957.22247
41957.01585
41956.84612
41956.74841
41956.76054
41956.94288
41957.32954
41957.59694
41957.71287
41957.64383
41957.37541
41956.56173
41958.97258
41960.37986
41960.06367
41959.67817
41959.61553
41959.56737
41959.50583
41959.4516
41959.40685
41959.36705
41959.3335
41959.30695
41959.28753
41959.27505
41959.26905
41959.2689
41959.27384
41959.28298
41959.29537
41959.31003
41959.32602
41959.34246
41959.35858
41959.37377
41959.38756
41959.39966
41959.40989
41959.4182
41959.42465
41959.42932
41959.43236
41959.43393
41959.4342
41959.43334
41959.43151
41959.42889
41959.42563
41959.42187
41959.41774
41959.41337
41959.40885
41959.40429
41959.39975
41959.39531
41959.39105
41959.387
41959.3832
41959.37968
41959.37648
41959.37363
41959.37115
41959.36905
41959.36734
41959.36602
41959.36511
41958.55723
41958.5555
41958.54797
41958.53374
41958.51285
41958.48504
41958.44996
41958.40713
41958.35596
41958.29581
41958.22605
41958.14611
41958.0557
41957.95501
41957.84517
41957.7291
41957.61296
41957.50894
41957.4381
41957.43982
41957.58671
41957.93583
41958.62938
41959.55778
41960.27824
41960.68094
41960.86012
41960.89461
41960.83679
41960.72964
41960.60507
41960.48022
41960.36295
41960.25838
41960.16714
41960.08648
41960.01499
41959.95131
41959.89514
41959.84208
41959.7911
41959.74575
41959.7027
41959.65977
41959.61832
41959.5785
41959.54034
41959.50399
41959.46954
41959.43692
41959.40585
41959.37579
41959.34595
41959.31538
41959.28304
41959.24801
41959.20951
41959.16692
41959.11975
41959.06767
41959.01
41958.94532
41958.87331
41958.79367
41958.70487
41958.60527
41958.49275