/*--------------------------------*- C++ -*----------------------------------*\
| =========                 |                                                 |
| \\      /  F ield         | OpenFOAM: The Open Source CFD Toolbox           |
|  \\    /   O peration     | Version:  2412                                  |
|   \\  /    A nd           | Website:  www.openfoam.com                      |
|    \\/     M anipulation  |                                                 |
\*---------------------------------------------------------------------------*/
FoamFile
{
    version     2.0;
    format      ascii;
    arch        "LSB;label=32;scalar=64";
    class       volScalarField;
    location    "0.1";
    object      rho;
}
// * * * * * * * * * * * * * * * * * * * * * * * * * * * * * * * * * * * * * //

dimensions      [1 -3 0 0 0 0 0];

internalField   nonuniform List<scalar> 
12008
(
1.477053541
1.476892562
1.476573376
1.476095562
1.475460615
1.474670487
1.473727581
1.472634804
1.471395647
1.470014288
1.468495688
1.466845679
1.465071041
1.46317954
1.461179965
1.45908214
1.456896919
1.454636173
1.452312756
1.449940477
1.447534058
1.445109106
1.442682079
1.440270261
1.437891746
1.435565413
1.433310905
1.431148582
1.429099449
1.42718504
1.425427226
1.423848025
1.422469246
1.421312041
1.420396391
1.419740489
1.419360009
1.419267261
1.41946686
1.419970709
1.420779069
1.421883825
1.423272764
1.42492798
1.426826053
1.428938504
1.431232506
1.433671788
1.43621767
1.438830158
1.441469025
1.444094806
1.44666967
1.449158106
1.451527424
1.453748057
1.455793684
1.457641207
1.459270612
1.460664768
1.46180919
1.46269182
1.463302857
1.463634172
1.463682393
1.463444431
1.462919902
1.46211157
1.46102562
1.459672095
1.458065293
1.456224084
1.454172082
1.451937609
1.449553415
1.447056121
1.444485408
1.441882969
1.439291305
1.436752454
1.434306743
1.431991666
1.429840965
1.427883971
1.426145215
1.424644295
1.423395974
1.422410441
1.42169369
1.421249071
1.421074493
1.421161076
1.421504637
1.422096555
1.422926141
1.42398101
1.42524733
1.426710059
1.428353152
1.430159757
1.432112373
1.434193025
1.436383381
1.43866487
1.4410188
1.443426477
1.445869327
1.44832903
1.450787663
1.453227873
1.455633056
1.457987552
1.46027684
1.462487738
1.464608585
1.4666294
1.468541997
1.470340067
1.472019195
1.473576838
1.475012241
1.476326313
1.477521462
1.478601395
1.479570909
1.480435663
1.481201951
1.481876484
1.482466187
1.482978009
1.483418766
1.483794992
1.484112828
1.484377923
1.484595358
1.484769585
1.484904387
1.485002833
1.485067254
1.485099174
1.476915733
1.476751978
1.476426879
1.475940272
1.475293808
1.474489621
1.473530295
1.472418916
1.471159157
1.469755386
1.468212771
1.46653736
1.464736152
1.462817145
1.460789361
1.458662851
1.456448678
1.454158893
1.451806495
1.449405391
1.446970353
1.444516976
1.442061654
1.439621557
1.43721462
1.434859541
1.432575771
1.430383503
1.428303622
1.426357635
1.424567529
1.422955518
1.421543744
1.420353892
1.419406662
1.418721164
1.418314206
1.418199552
1.4183791
1.418869406
1.419673858
1.420782407
1.422183569
1.423859666
1.425787073
1.4279367
1.43027474
1.43276364
1.43536322
1.43803187
1.440727732
1.443409796
1.446038834
1.44857815
1.450994101
1.453256399
1.455338214
1.457216111
1.458869873
1.460282251
1.461438696
1.462327113
1.462937673
1.463261471
1.463296565
1.463039179
1.462488965
1.461648882
1.460525426
1.459129103
1.457474847
1.455582347
1.453476214
1.451185916
1.448745447
1.446192707
1.443568602
1.440915917
1.438278034
1.435697609
1.4332153
1.430868659
1.428691268
1.426712146
1.424955451
1.423440427
1.422181568
1.421188904
1.420468359
1.420024631
1.419855265
1.419949134
1.420304264
1.420912063
1.421761805
1.422840966
1.424135466
1.425629911
1.427307839
1.429151923
1.431144174
1.433266104
1.435498886
1.437823507
1.440220889
1.442672009
1.445158025
1.447660402
1.450161057
1.452642507
1.455088042
1.457481905
1.459809485
1.46205751
1.464214222
1.466269533
1.468215153
1.470044663
1.471753548
1.473339178
1.474800725
1.476139051
1.477356538
1.478456898
1.479444952
1.480326409
1.481107633
1.481795421
1.482396795
1.482918813
1.483368396
1.483752191
1.484076444
1.484346903
1.484568742
1.484746499
1.484884026
1.48498446
1.485050219
1.485083066
1.476641145
1.47647151
1.476134634
1.475630472
1.474960936
1.474128438
1.473135839
1.471986489
1.470684328
1.46923401
1.467641012
1.465911734
1.464053569
1.462074947
1.459985356
1.457795335
1.455516447
1.453161235
1.450743167
1.448276572
1.445776582
1.443259076
1.440740638
1.438238536
1.435770708
1.433355777
1.431013065
1.428762608
1.426625159
1.424622156
1.422775634
1.421108051
1.419642008
1.418399873
1.417403317
1.416672721
1.416226462
1.416080103
1.416234259
1.416707786
1.417512001
1.41863385
1.420062888
1.421781852
1.423766855
1.425987856
1.428409448
1.430991919
1.433692518
1.436466817
1.439270079
1.442058518
1.444790376
1.44742677
1.449932258
1.452275154
1.454427588
1.456365381
1.458067801
1.459517234
1.460698853
1.46160033
1.462211611
1.462522441
1.462533275
1.462238874
1.461639127
1.460737368
1.459540749
1.458060754
1.456313652
1.454320832
1.452108934
1.449709722
1.447159641
1.444499045
1.441771138
1.439020678
1.436292555
1.433630383
1.431075214
1.428664493
1.426431315
1.424404018
1.422606061
1.421056144
1.419768488
1.41875317
1.418016467
1.417565656
1.417397869
1.417499207
1.417871198
1.418505688
1.419392068
1.420517623
1.421867782
1.423426405
1.425176056
1.427098293
1.429173919
1.431383217
1.433706162
1.436122613
1.438612474
1.441155843
1.443733151
1.446325283
1.448913714
1.451480641
1.454009124
1.456483246
1.458888278
1.461210844
1.463439086
1.465562813
1.467573617
1.469464962
1.471232215
1.472872637
1.474385319
1.475771064
1.477032235
1.478172561
1.479196927
1.480111138
1.480921693
1.48163555
1.482259916
1.482802047
1.483269072
1.483667845
1.484004814
1.484285921
1.484516518
1.484701303
1.484844264
1.484948643
1.485016932
1.485051087
1.476225958
1.476047345
1.475692442
1.475161371
1.474456389
1.473580267
1.472536202
1.47132786
1.469959508
1.468436149
1.466763672
1.46494896
1.462999974
1.460925805
1.458736688
1.456443986
1.454060144
1.451598624
1.449073817
1.446500948
1.443895982
1.441275535
1.438656802
1.436057513
1.433495915
1.430990779
1.428561442
1.426227853
1.424010621
1.42193105
1.420011116
1.418273376
1.416740762
1.41543624
1.414382388
1.413600853
1.41311162
1.412932086
1.413062987
1.41352269
1.414334201
1.41548098
1.41695395
1.418736543
1.420804746
1.423127506
1.425667516
1.42838238
1.431226031
1.434150323
1.437106629
1.440047349
1.442927181
1.445704112
1.448340075
1.450801274
1.453058212
1.455085491
1.456861458
1.458367787
1.459589073
1.460512484
1.461127287
1.461422098
1.461399539
1.461052766
1.460382058
1.459391366
1.458088902
1.456487705
1.454606126
1.45246814
1.450103421
1.447547076
1.444839019
1.442022974
1.439145162
1.43625278
1.43339241
1.430608541
1.427942324
1.425430694
1.423105883
1.420995308
1.419121741
1.417503654
1.416155618
1.415088641
1.414310407
1.413832037
1.413652302
1.413752896
1.414140837
1.414808826
1.415746498
1.416940759
1.418376112
1.420035016
1.421898265
1.42394538
1.426154972
1.428505084
1.430973495
1.433537994
1.436176613
1.438867821
1.441590696
1.444325052
1.447051565
1.449751876
1.452408695
1.455005911
1.457528708
1.459963688
1.462299
1.464524459
1.466631653
1.468614021
1.470466896
1.472187499
1.473774889
1.475229858
1.476554791
1.477753479
1.478830912
1.479793047
1.480646576
1.481398688
1.482056848
1.482628594
1.483121344
1.483542245
1.483898032
1.484194922
1.48443852
1.484633754
1.484784814
1.484895107
1.484967256
1.485003337
1.47566658
1.475475617
1.475095916
1.474527824
1.473774035
1.472837763
1.471722606
1.470432607
1.468972416
1.467347476
1.465564204
1.46363013
1.461554009
1.459345875
1.457017057
1.454580154
1.452048961
1.449438369
1.446764236
1.444043242
1.441292733
1.43853058
1.435775062
1.433044775
1.430358595
1.427735676
1.425195501
1.422757967
1.420443485
1.418273081
1.416268468
1.414452047
1.412846799
1.41147601
1.410362909
1.4095302
1.408999341
1.408789524
1.408902231
1.40935355
1.410180594
1.411363314
1.412894439
1.414758531
1.416931815
1.419382432
1.422071182
1.424952744
1.427977261
1.431092169
1.434244094
1.437380648
1.440451982
1.443411977
1.446219029
1.448836427
1.451232354
1.453379607
1.455255126
1.456839463
1.458116279
1.459071941
1.459694371
1.459972215
1.45990865
1.459496041
1.458735097
1.45763072
1.456192676
1.454436215
1.452382556
1.450059151
1.447499622
1.444743292
1.441834283
1.438820199
1.435750494
1.432674697
1.429640672
1.42669316
1.423872721
1.421215204
1.41875169
1.416508825
1.414509362
1.412772716
1.411315397
1.410151193
1.409291088
1.408751063
1.408536986
1.408621528
1.409020447
1.409727464
1.41073234
1.412021073
1.413576417
1.415378392
1.417404847
1.419632014
1.422035031
1.424588428
1.427266561
1.430044002
1.432895865
1.435798085
1.438727628
1.441662647
1.444582594
1.447468291
1.450301976
1.453067347
1.455749602
1.458335493
1.460813384
1.463173329
1.46540714
1.467508443
1.469472724
1.471297321
1.472981391
1.474525824
1.475933113
1.477207184
1.478353199
1.479377327
1.480286515
1.481088246
1.481790312
1.482400595
1.482926879
1.483376674
1.483757074
1.484074638
1.484335293
1.484544257
1.484705974
1.484824068
1.48490133
1.484939951
1.474958588
1.474751605
1.474339775
1.473723751
1.472906792
1.471892664
1.470685461
1.469289691
1.467710491
1.465953869
1.464026935
1.461938094
1.459697178
1.457315519
1.454805965
1.45218283
1.449461795
1.446659755
1.443794626
1.440885122
1.437950531
1.43501049
1.432084798
1.429193271
1.426355669
1.423591681
1.420920991
1.418363392
1.415938956
1.413668207
1.4115723
1.409673132
1.407993358
1.406556211
1.405385218
1.404503832
1.403934767
1.403698924
1.403798606
1.404246569
1.405095645
1.406322543
1.407922358
1.409881415
1.412176776
1.41477627
1.417639107
1.420717091
1.423956337
1.427299342
1.43068721
1.434061812
1.43736768
1.440553488
1.443573033
1.44638571
1.448956525
1.451255747
1.453258316
1.45494318
1.456292677
1.457292063
1.457927479
1.458188326
1.458077348
1.457586684
1.456717755
1.455476861
1.453875936
1.451933183
1.449673526
1.447128752
1.444337221
1.441343093
1.438195031
1.434944485
1.431643692
1.428343662
1.425092412
1.42193372
1.418906519
1.416044989
1.413379169
1.410935868
1.408739576
1.40681311
1.405177825
1.403853328
1.4028567
1.40220927
1.401932706
1.401982983
1.402388401
1.403143319
1.404237057
1.405653561
1.407372443
1.409369782
1.411618944
1.414091348
1.416757178
1.419586026
1.422547479
1.425611635
1.428749557
1.43193364
1.435137899
1.43833816
1.441512169
1.444639627
1.447702175
1.450683345
1.453568497
1.456344772
1.459001057
1.461527978
1.463917908
1.466164988
1.468265145
1.47021609
1.472017291
1.473669906
1.475176676
1.476541773
1.477770619
1.478869675
1.479846206
1.480708051
1.481463387
1.482120505
1.48268761
1.483172636
1.483583095
1.483925949
1.484207499
1.484433305
1.484608115
1.484735803
1.48481936
1.484861111
1.474097032
1.47387007
1.47341823
1.472742607
1.471847187
1.470736449
1.469415131
1.467888349
1.466161885
1.4642425
1.46213824
1.459858681
1.457415094
1.454820542
1.452089883
1.449239697
1.446288135
1.443254696
1.44015995
1.43702522
1.433872245
1.430722865
1.427598739
1.424521139
1.421510831
1.418588058
1.415772624
1.413084055
1.410541836
1.408165682
1.405975819
1.403993234
1.402239828
1.40073836
1.399512269
1.398585416
1.39798152
1.397723111
1.397813265
1.398260323
1.3991343
1.400409085
1.402082826
1.404144418
1.406572622
1.409335747
1.412392036
1.415690777
1.419174085
1.422779187
1.426440991
1.430094661
1.433677943
1.437133033
1.440407847
1.443456676
1.446240264
1.448725432
1.450884383
1.452693887
1.45413453
1.455190161
1.455844851
1.456089249
1.455925138
1.455344972
1.454351327
1.452952509
1.451163359
1.449005875
1.446509551
1.443711289
1.440654773
1.437389239
1.433967673
1.430444596
1.426873705
1.423305737
1.419786925
1.416358321
1.413056078
1.409912528
1.406957727
1.404221003
1.401732065
1.399521375
1.397619668
1.3960567
1.394859348
1.394054338
1.393686602
1.393690117
1.394105493
1.394927509
1.396143423
1.397733169
1.399671198
1.401927739
1.404469925
1.407262776
1.410270072
1.413455127
1.416781497
1.420213628
1.423717429
1.427260761
1.430813816
1.434349373
1.437842928
1.441272708
1.444619584
1.447866922
1.4510004
1.454007824
1.456878963
1.459605427
1.462180583
1.464599504
1.466858951
1.468957352
1.470894783
1.472672912
1.474294921
1.475765382
1.477090098
1.478275911
1.479330484
1.480262075
1.481079301
1.481790916
1.482405595
1.482931748
1.483377353
1.48374982
1.484055873
1.484301456
1.484491656
1.484630636
1.484721607
1.484767045
1.473076782
1.472825614
1.472325387
1.471577819
1.470587856
1.469360911
1.467902582
1.466218813
1.464316262
1.462202717
1.459887483
1.457381687
1.454698487
1.45185318
1.448863191
1.445747956
1.442528706
1.439228148
1.435870078
1.432478936
1.429079344
1.425695664
1.422351615
1.419069991
1.415872517
1.412779834
1.409811624
1.406986844
1.404324043
1.401841741
1.39955882
1.397494914
1.395670717
1.394108092
1.392830009
1.391860379
1.391223684
1.390944023
1.391025547
1.391470249
1.39236696
1.393687564
1.39543389
1.397598368
1.400162562
1.403096366
1.406358033
1.409895054
1.413645892
1.417542429
1.421512853
1.425484692
1.42938766
1.433156019
1.436730271
1.440058107
1.443094638
1.445802049
1.448148858
1.450108955
1.451660686
1.452786194
1.453467286
1.453696244
1.453473757
1.452793177
1.451658855
1.450081872
1.448080859
1.445682525
1.442921776
1.439841261
1.436490231
1.432922687
1.429194924
1.425362774
1.421478963
1.417591136
1.413740998
1.409964822
1.406295205
1.402763621
1.399403075
1.396250118
1.393345666
1.390734365
1.388462575
1.386575457
1.38511365
1.384110752
1.383632495
1.383595694
1.384041946
1.384968996
1.386358409
1.388183093
1.390409818
1.393000937
1.395915758
1.399111647
1.402544945
1.406171777
1.409948802
1.413833943
1.417787076
1.421770647
1.425750189
1.429694679
1.433576734
1.437372639
1.44106221
1.444628556
1.448057758
1.451338524
1.454461865
1.457420818
1.460210224
1.462826582
1.465267956
1.467533923
1.469625536
1.47154529
1.473297061
1.47488602
1.476318505
1.477601854
1.47874422
1.479754348
1.480641353
1.481414498
1.482082973
1.482655704
1.483141176
1.483547285
1.483881212
1.484149322
1.484357073
1.48450894
1.484608379
1.484658029
1.471892927
1.4716131
1.471055692
1.470223296
1.469122113
1.467758802
1.466140115
1.464273131
1.462165712
1.45982704
1.457268086
1.454501997
1.451544338
1.4484132
1.44512917
1.441715151
1.43819605
1.434598354
1.430949597
1.42727777
1.423610702
1.419975464
1.416397877
1.412902149
1.409510715
1.406244259
1.403121926
1.400161657
1.397380616
1.394795678
1.392423948
1.390283266
1.388392675
1.386772739
1.385445583
1.384434837
1.383765487
1.383463175
1.383534238
1.383971126
1.384881888
1.386240145
1.38805048
1.39031008
1.393004653
1.396107102
1.399577039
1.403361286
1.407395418
1.41160624
1.415914955
1.420240656
1.424503765
1.428629013
1.432547708
1.436199124
1.439531024
1.44249945
1.445067991
1.44720675
1.44889124
1.450101572
1.450817165
1.45103227
1.450746692
1.449955353
1.448665179
1.446890971
1.444656153
1.441993101
1.438942883
1.435554237
1.431881701
1.427982919
1.423915399
1.419733207
1.415484307
1.411209278
1.406941958
1.402712052
1.398549178
1.394487338
1.390568593
1.386844945
1.383377816
1.380235133
1.37748648
1.375197547
1.373424818
1.372211717
1.371638483
1.371591844
1.372121134
1.373218669
1.374855763
1.376994771
1.37959231
1.38260131
1.385972416
1.389654972
1.393597759
1.397749646
1.402060261
1.406480717
1.410964388
1.415467677
1.419950713
1.424377885
1.428718178
1.432945283
1.43703747
1.440977293
1.444751137
1.448348716
1.45176255
1.454987493
1.458020342
1.46085954
1.463504975
1.465957863
1.46822068
1.470297124
1.472192083
1.473911575
1.475462664
1.476853336
1.478092333
1.479188972
1.480152925
1.48099401
1.481721971
1.482346285
1.482875974
1.483319449
1.483684381
1.48397758
1.484204899
1.484371149
1.484480045
1.484534401
1.470541255
1.47022815
1.46960448
1.468674031
1.467444644
1.465924613
1.46412225
1.462046168
1.459705862
1.45711236
1.4542788
1.45122088
1.447957136
1.444509043
1.440900938
1.437159764
1.433314659
1.429396389
1.42543667
1.421467397
1.417519844
1.413623891
1.409807376
1.40609565
1.402511415
1.399074843
1.395803929
1.39271499
1.389823246
1.387143436
1.384690442
1.382479913
1.380528851
1.378856144
1.377482719
1.3764316
1.375728016
1.375399104
1.375455656
1.375875891
1.376785259
1.37816718
1.380025826
1.382364474
1.385174514
1.388433551
1.392104281
1.396134438
1.400457949
1.404997283
1.409666777
1.414376562
1.419036621
1.423560513
1.427868365
1.431888906
1.435560466
1.438831044
1.441657702
1.444005545
1.445846486
1.447158213
1.447917657
1.448121359
1.447768754
1.446857118
1.445396948
1.443407867
1.440919194
1.4379699
1.434607752
1.430887466
1.426867805
1.422607806
1.418162615
1.413579797
1.408897172
1.404143224
1.399340533
1.394511822
1.38968721
1.384910749
1.380244461
1.375768709
1.371578521
1.367776457
1.364463065
1.36172763
1.359640296
1.358259434
1.357656908
1.357670801
1.358376804
1.359742709
1.36172477
1.364271658
1.36732836
1.370838176
1.374743729
1.378987439
1.383511775
1.388259502
1.393174095
1.398200377
1.403285336
1.408379073
1.413435734
1.418414316
1.423279261
1.428000753
1.432554714
1.436922504
1.441090412
1.445048983
1.448792301
1.452317283
1.455623068
1.458710523
1.461581885
1.464240532
1.466690852
1.468938187
1.470988805
1.472849873
1.47452942
1.476036254
1.477379845
1.47857017
1.479617527
1.480532338
1.48132494
1.482005386
1.482583263
1.483067521
1.483466338
1.483786992
1.48403575
1.484217772
1.484337047
1.484396571
1.46901881
1.468667728
1.467968608
1.466926818
1.465552309
1.463855505
1.461846773
1.459536765
1.456937128
1.45406127
1.450925048
1.447547274
1.443950015
1.440158671
1.436201843
1.432110998
1.427919941
1.423664131
1.419379845
1.415103221
1.41086924
1.406710711
1.402657402
1.39873546
1.394967246
1.391371634
1.387964611
1.384760056
1.381770541
1.379008096
1.376484936
1.374214159
1.372210429
1.370490644
1.369074215
1.367983252
1.367242928
1.366881711
1.366918213
1.367310187
1.368198955
1.369585128
1.37147006
1.373864034
1.37676564
1.380159042
1.384012061
1.388275361
1.392882992
1.397754391
1.402797692
1.407913966
1.413001898
1.417962325
1.422702126
1.427137099
1.431193672
1.434809478
1.437933035
1.440522852
1.442546203
1.443977834
1.444792085
1.444988083
1.444565675
1.443525408
1.441882525
1.439662721
1.436902358
1.433647813
1.429953739
1.425880027
1.42148752
1.416832861
1.411963369
1.406913337
1.401703399
1.396344258
1.39084493
1.385223944
1.379520516
1.373802529
1.368169189
1.362747507
1.357682769
1.35312457
1.349209914
1.346049657
1.343718591
1.342297726
1.341778929
1.341990243
1.343007875
1.344769099
1.34720916
1.350261478
1.353860105
1.35794073
1.362440659
1.367298323
1.372452701
1.377842946
1.383408389
1.389088977
1.394826122
1.400563822
1.406249904
1.411837212
1.417284584
1.422557501
1.427628331
1.43247618
1.437086385
1.441449748
1.445561618
1.449420947
1.453029408
1.456390645
1.459509703
1.462392628
1.465046231
1.46747797
1.46969591
1.471708723
1.473525681
1.475156633
1.476611933
1.477902336
1.479038846
1.480032543
1.480894394
1.481635057
1.4822647
1.482792833
1.483228156
1.483578427
1.483850339
1.484049414
1.484179919
1.484245036
1.467324511
1.466930794
1.46614717
1.464981053
1.463445056
1.46155232
1.459315858
1.456748955
1.453865993
1.450683337
1.447220115
1.44349877
1.439545362
1.435389611
1.431064713
1.426606934
1.422055017
1.41744942
1.412831367
1.408241724
1.403719705
1.399301496
1.395018977
1.390898832
1.386962358
1.383226036
1.379702616
1.376402363
1.373334213
1.370506752
1.367929024
1.365611249
1.363565526
1.361806553
1.360351993
1.359222788
1.35844372
1.358044192
1.358054181
1.358406074
1.359253622
1.360621359
1.362505961
1.364925487
1.367887096
1.371383371
1.375389484
1.37986141
1.384735619
1.389930446
1.395349132
1.4008842
1.40642266
1.411851374
1.417061975
1.421954803
1.426441598
1.430446861
1.433908082
1.436775139
1.439009242
1.440581484
1.441463452
1.44165709
1.441163709
1.439988149
1.438151751
1.435687643
1.432640358
1.42906427
1.425020566
1.42057257
1.415779607
1.410690174
1.405335944
1.399728866
1.393863827
1.387728377
1.381318657
1.374657656
1.367810123
1.36088971
1.354057029
1.347509081
1.341460447
1.336119209
1.331658295
1.328199307
1.325807518
1.324568838
1.324292309
1.32490453
1.326406103
1.32870521
1.331716024
1.33535898
1.339561174
1.34425541
1.349378525
1.354869571
1.360668211
1.366713582
1.372943808
1.379296197
1.385708063
1.39211803
1.398467622
1.404702914
1.410776039
1.416646342
1.422281071
1.427655534
1.43275275
1.43756268
1.442081176
1.446308795
1.450249616
1.45391019
1.457298679
1.460424225
1.463296538
1.465925674
1.468321947
1.470495919
1.472458433
1.474220634
1.475793956
1.477190068
1.478420779
1.479497892
1.480433045
1.481237528
1.481922112
1.482496875
1.48297105
1.483352883
1.483649501
1.483866791
1.484009303
1.484080405
1.465459814
1.465018996
1.464142248
1.46283956
1.461126832
1.459020587
1.45653715
1.45369308
1.450506096
1.446996068
1.443185856
1.439101882
1.434774415
1.43023758
1.425529139
1.420690089
1.415764114
1.410796876
1.405835098
1.400925338
1.396112345
1.391437056
1.38693447
1.382632001
1.378549048
1.374698077
1.371086631
1.367719463
1.364600325
1.361733244
1.359123399
1.356777764
1.354705708
1.352919637
1.35143539
1.350272598
1.349455445
1.349014223
1.348987298
1.349293469
1.350080942
1.351406642
1.353262205
1.355673959
1.358658699
1.362219111
1.366339942
1.370985092
1.376096178
1.38159298
1.387375881
1.393330115
1.399331306
1.405251608
1.410965696
1.416355962
1.421316463
1.425755418
1.42959631
1.432777876
1.435253385
1.436989258
1.437954086
1.438152718
1.437589238
1.436273892
1.434235611
1.431516385
1.428169957
1.424258939
1.419849982
1.41500688
1.409782028
1.404207607
1.398289065
1.392004499
1.385313542
1.378177182
1.370585251
1.362583141
1.354287957
1.34588972
1.337640409
1.329833912
1.322774261
1.316736683
1.311916677
1.308415838
1.306302082
1.305513856
1.305720165
1.306970829
1.30913878
1.312108857
1.3157804
1.32006808
1.324899478
1.330211511
1.335946822
1.342050579
1.348467893
1.355141975
1.362013179
1.36901893
1.376094487
1.383174369
1.390194282
1.397093258
1.403815775
1.410313575
1.416546984
1.422485582
1.428108207
1.433402343
1.438363037
1.44299152
1.447293734
1.451278931
1.454958461
1.45834483
1.461451039
1.464290189
1.466875288
1.469219206
1.471334716
1.47323455
1.474931451
1.476438173
1.477767446
1.478931875
1.479943822
1.480815239
1.481557517
1.482181313
1.482696398
1.483111509
1.48343421
1.483670752
1.483825967
1.483903406
1.463429355
1.462937338
1.461959628
1.460509372
1.458606433
1.456271421
1.453524663
1.45038663
1.446878916
1.443025296
1.438852584
1.434391177
1.429675306
1.424743017
1.419635998
1.414399334
1.409081233
1.403732692
1.398406922
1.393158216
1.38803989
1.383101109
1.378382945
1.373914804
1.369713201
1.365783808
1.362125402
1.358733852
1.35560502
1.352736529
1.350128595
1.347784438
1.345710569
1.343917173
1.34241839
1.341232619
1.340383376
1.339901494
1.339828577
1.340089379
1.34080384
1.342065917
1.343864809
1.346235214
1.349204189
1.352785829
1.356976501
1.361750677
1.367058149
1.372823203
1.378946114
1.385306904
1.391770935
1.398195639
1.404437555
1.410358896
1.41583302
1.420748428
1.425011177
1.428545843
1.4312954
1.433220176
1.434285382
1.434498648
1.433868384
1.432411395
1.430165806
1.427183911
1.423529533
1.419273301
1.414485376
1.409225595
1.403531859
1.397409069
1.390822805
1.383703461
1.375965992
1.367545868
1.35844287
1.34875571
1.338692128
1.328554942
1.318718726
1.309603356
1.301625559
1.295135517
1.290314794
1.287213426
1.285834401
1.285719187
1.286782333
1.28888963
1.291876421
1.295610366
1.299987625
1.304928366
1.310370167
1.316261774
1.32255785
1.329214797
1.336187513
1.343427077
1.350879424
1.358485015
1.366179456
1.373894955
1.381562459
1.389114226
1.396486564
1.403622397
1.410473367
1.417001232
1.423178445
1.428987908
1.434422024
1.439481241
1.444172329
1.448506618
1.452498389
1.456163543
1.45951861
1.462580093
1.465364106
1.467886243
1.470161582
1.472204769
1.474030112
1.475651652
1.477083182
1.478338209
1.479429878
1.480370845
1.481173138
1.481848003
1.482405755
1.482855621
1.483205597
1.483462294
1.483630823
1.483714907
1.461241533
1.46069478
1.459609433
1.458002394
1.455898169
1.453322155
1.450299331
1.446854606
1.443013801
1.43880469
1.434257803
1.429406894
1.424289114
1.418945017
1.413418578
1.407757386
1.402013102
1.396242096
1.390505874
1.384870565
1.379404456
1.374172717
1.369229561
1.364609969
1.360326102
1.356371374
1.352728841
1.349379102
1.346305289
1.343495502
1.340943268
1.338647346
1.33661134
1.33484352
1.333356773
1.332168669
1.331302273
1.330788447
1.330671091
1.330888609
1.331525044
1.332708178
1.334427856
1.336727058
1.33964328
1.343202916
1.347415663
1.352269076
1.357724226
1.363713335
1.370139929
1.376881701
1.38379578
1.390725761
1.397509629
1.403987706
1.410009844
1.415441296
1.420166919
1.424093621
1.427151247
1.429292171
1.430477633
1.43071762
1.430026637
1.4284292
1.425974288
1.422725904
1.418758593
1.414150238
1.408971561
1.403272421
1.397066312
1.39031684
1.382932864
1.374781192
1.365724176
1.35568041
1.344690032
1.33295218
1.32081264
1.308720536
1.297196045
1.286818706
1.278158253
1.271659506
1.267398184
1.265387994
1.2650335
1.266054714
1.268252193
1.271385311
1.275278603
1.279805327
1.284875967
1.290428828
1.296420343
1.302817276
1.3095908
1.316712064
1.324148783
1.331862753
1.339808286
1.347931618
1.356171273
1.364459372
1.372723792
1.380891006
1.388889333
1.396652237
1.404121299
1.411248512
1.417997663
1.424344697
1.430277128
1.435792676
1.440897403
1.445603637
1.449927942
1.453889336
1.457507891
1.460803726
1.463796394
1.466504588
1.468946071
1.471137741
1.47309576
1.474835681
1.476372526
1.477720827
1.47889459
1.47990722
1.48077141
1.481499007
1.48210087
1.482586713
1.48296496
1.483242575
1.483424933
1.483515927
1.458908967
1.458304698
1.457106574
1.455335831
1.453022244
1.450196608
1.446889055
1.443129229
1.438947164
1.434374191
1.429443579
1.424190829
1.418653747
1.412872547
1.406890297
1.400754031
1.394516703
1.388239849
1.381996303
1.375871504
1.369961098
1.36436221
1.359157635
1.354396253
1.350083014
1.346187481
1.34266288
1.339462493
1.336548122
1.333893459
1.331482879
1.329309933
1.327375574
1.325686931
1.324256614
1.323102282
1.322247211
1.321722698
1.321574976
1.321758107
1.322322429
1.323419106
1.325045676
1.327251442
1.330083855
1.333582046
1.337770345
1.342651559
1.348201026
1.354362454
1.361046403
1.36813181
1.37547049
1.382894073
1.390222516
1.397273302
1.403870446
1.409852557
1.415079345
1.419436149
1.422836398
1.425222183
1.426549929
1.426831188
1.426088508
1.424355197
1.421692763
1.418178242
1.41389728
1.408933708
1.403354912
1.397193191
1.390425423
1.382956868
1.374619591
1.365199238
1.35450046
1.342444353
1.329160588
1.315014372
1.300539454
1.286343429
1.27308684
1.261560415
1.252592349
1.246793427
1.244071898
1.243573268
1.244787851
1.247343329
1.250850644
1.255077242
1.259876809
1.265155233
1.270854177
1.276939598
1.283391994
1.290198993
1.297349972
1.304832117
1.312627311
1.320709704
1.329044007
1.337584585
1.346275436
1.355051133
1.36383876
1.372560763
1.38113851
1.389496195
1.397564664
1.405284699
1.412609387
1.419505346
1.425952751
1.431944303
1.437483393
1.442581812
1.447257336
1.45153147
1.455427559
1.458969352
1.462180043
1.465081733
1.467695211
1.47003997
1.472134325
1.473995587
1.475640207
1.477083874
1.478341554
1.47942746
1.480354986
1.481136593
1.481783688
1.482306469
1.482713777
1.48301292
1.483209529
1.483307648
1.456448763
1.455785138
1.454470969
1.452532327
1.450004749
1.44692485
1.443328139
1.43924889
1.434720743
1.429777331
1.424452577
1.418780692
1.412796107
1.406533777
1.400030426
1.39332727
1.386474621
1.379538272
1.372606745
1.365796939
1.359253741
1.353136717
1.347589209
1.342692094
1.338436805
1.33474359
1.331507709
1.328633371
1.326046378
1.323699366
1.32156475
1.319630723
1.31789678
1.316370634
1.315066498
1.314003845
1.313207613
1.312710699
1.31256281
1.312729707
1.313243014
1.314255345
1.315787605
1.317888506
1.320615393
1.324020294
1.32814297
1.333003156
1.338593058
1.3448713
1.351759422
1.359141662
1.36686821
1.374761562
1.382625216
1.390253837
1.397444008
1.404004707
1.409766598
1.41458932
1.418366202
1.421026311
1.422520114
1.422859542
1.422077216
1.420216211
1.4173522
1.413576466
1.408985904
1.403668576
1.397683912
1.391037912
1.383656772
1.375367708
1.365902861
1.354947249
1.342245589
1.327753085
1.311761095
1.294889562
1.277904903
1.261530134
1.246475062
1.233870636
1.225143314
1.221427477
1.22084283
1.222642757
1.22600432
1.230264761
1.235103044
1.240372511
1.245996054
1.251932015
1.258162229
1.26468313
1.271499369
1.278618504
1.286047059
1.293787537
1.301835841
1.31017902
1.318793434
1.327643476
1.336681015
1.345845765
1.355066732
1.364264788
1.373356252
1.382257185
1.39088793
1.399177383
1.407066459
1.414510387
1.421479617
1.427959385
1.433948151
1.439455258
1.444498223
1.449100031
1.453286717
1.457085426
1.46052302
1.4636252
1.466416071
1.46891803
1.471151846
1.47313685
1.474891129
1.476431693
1.477774578
1.47893488
1.479926734
1.480763241
1.481456357
1.482016765
1.482453712
1.482774836
1.48298601
1.483091417
1.453882556
1.453158814
1.451727454
1.449619734
1.446877219
1.443542444
1.439656091
1.435256341
1.430379012
1.425057634
1.419323209
1.413203724
1.40672389
1.399905811
1.392771495
1.385348118
1.377676786
1.369824985
1.361901773
1.354072458
1.346565721
1.339657703
1.333616526
1.328593118
1.324551667
1.321306203
1.318640821
1.316375761
1.314376566
1.31256824
1.310909226
1.309384283
1.307994826
1.306752634
1.305676781
1.304791411
1.304125585
1.303715917
1.303617381
1.303796577
1.304293633
1.305247532
1.306695883
1.308692686
1.311304126
1.314594632
1.318619542
1.323416535
1.328996725
1.335336692
1.342372791
1.349998832
1.358067613
1.366396168
1.374774132
1.38297445
1.390765638
1.397924724
1.40424975
1.409570502
1.413756273
1.416720014
1.4184048
1.41882137
1.418014415
1.416037607
1.41298233
1.408955229
1.404064474
1.398400505