/*--------------------------------*- C++ -*----------------------------------*\
| =========                 |                                                 |
| \\      /  F ield         | OpenFOAM: The Open Source CFD Toolbox           |
|  \\    /   O peration     | Version:  2412                                  |
|   \\  /    A nd           | Website:  www.openfoam.com                      |
|    \\/     M anipulation  |                                                 |
\*---------------------------------------------------------------------------*/
FoamFile
{
    version     2.0;
    format      ascii;
    arch        "LSB;label=32;scalar=64";
    class       surfaceVectorField;
    location    "0.1";
    object      rhoUf;
}
// * * * * * * * * * * * * * * * * * * * * * * * * * * * * * * * * * * * * * //

dimensions      [1 -2 -1 0 0 0 0];

internalField   nonuniform List<vector> 
23538
(
(-6.790441049e-05 2.546385527e-05 0)
(-3.001001628e-05 5.861981723e-05 0)
(-0.000200253319 3.717052591e-05 0)
(-0.0001847976675 0.0001234166533 0)
(-0.0003500156087 4.003544865e-05 0)
(-0.0003859163859 0.0001415465996 0)
(-0.0004896951264 3.844596118e-05 0)
(-0.0005833104817 0.0001325271916 0)
(-0.0006067657013 3.523533518e-05 0)
(-0.0007467549126 0.0001113089524 0)
(-0.0006954998969 3.140062239e-05 0)
(-0.000864336976 8.465895169e-05 0)
(-0.0007527092919 2.722970987e-05 0)
(-0.0009295385968 5.507445555e-05 0)
(-0.000775766586 2.268823216e-05 0)
(-0.0009375925111 2.307653237e-05 0)
(-0.0007618972407 1.764540536e-05 0)
(-0.0008839665079 -1.153152803e-05 0)
(-0.0007080828453 1.1975299e-05 0)
(-0.0007639079857 -4.904178722e-05 0)
(-0.0006112122987 5.597846691e-06 0)
(-0.0005725783172 -8.959479415e-05 0)
(-0.0004683329971 -1.506406507e-06 0)
(-0.0003053727768 -0.0001330822704 0)
(-0.0002769100604 -9.299756783e-06 0)
(4.173918714e-05 -0.0001791342383 0)
(-3.508812843e-05 -1.768802118e-05 0)
(0.0004717604138 -0.0002271173391 0)
(0.0002580516618 -2.651600487e-05 0)
(0.0009862634802 -0.0002761345313 0)
(0.0006022422209 -3.556625728e-05 0)
(0.001585002144 -0.0003250367967 0)
(0.0009958082708 -4.456095887e-05 0)
(0.002265554304 -0.0003724425733 0)
(0.001435483811 -5.317050372e-05 0)
(0.003023023816 -0.0004167781201 0)
(0.00191629403 -6.102736159e-05 0)
(0.00384982912 -0.0004563401802 0)
(0.002431523057 -6.774739408e-05 0)
(0.004735612671 -0.0004893789932 0)
(0.002972781423 -7.295654571e-05 0)
(0.005667298822 -0.0005142075329 0)
(0.003530204745 -7.632057867e-05 0)
(0.00662932737 -0.0005293123689 0)
(0.004092751663 -7.757545056e-05 0)
(0.007604063481 -0.0005334768036 0)
(0.004648616059 -7.655271278e-05 0)
(0.008572371665 -0.0005258817099 0)
(0.005185703892 -7.319670334e-05 0)
(0.009514321002 -0.0005061824335 0)
(0.005692150702 -6.7571572e-05 0)
(0.01040996592 -0.000474542536 0)
(0.006156822594 -5.985767457e-05 0)
(0.01124013958 -0.0004316308441 0)
(0.006569768383 -5.034166332e-05 0)
(0.01198719504 -0.0003785701153 0)
(0.006922589143 -3.938774992e-05 0)
(0.01263563784 -0.0003168613613 0)
(0.007208693992 -2.727049801e-05 0)
(0.01317260721 -0.000248275286 0)
(0.007422913221 -1.406514288e-05 0)
(0.01358789831 -0.0001742091163 0)
(0.00756112135 -1.053868864e-07 0)
(0.01387443778 -9.569590215e-05 0)
(0.00762156737 1.384764084e-05 0)
(0.0140279658 -1.512559075e-05 0)
(0.007605461819 2.717790315e-05 0)
(0.01404640159 6.449960519e-05 0)
(0.007516117291 3.956220595e-05 0)
(0.01393288432 0.0001410216019 0)
(0.007358447503 5.076927383e-05 0)
(0.01369358028 0.0002127563774 0)
(0.007138636501 6.062073733e-05 0)
(0.01333719242 0.0002783382624 0)
(0.006863839725 6.900124637e-05 0)
(0.0128745592 0.0003366777533 0)
(0.006541811531 7.583751135e-05 0)
(0.01231798245 0.0003870189865 0)
(0.006180928211 8.110606173e-05 0)
(0.01168117882 0.0004287887311 0)
(0.005789439365 8.482807141e-05 0)
(0.01097848177 0.000461786041 0)
(0.005375597052 8.705466212e-05 0)
(0.01022433105 0.0004859592681 0)
(0.004947342657 8.788159543e-05 0)
(0.009433198152 0.0005015337923 0)
(0.004512145138 8.742557527e-05 0)
(0.008619064729 0.000508922884 0)
(0.004076882103 8.582032583e-05 0)
(0.007795164614 0.000508689792 0)
(0.003647766601 8.320866088e-05 0)
(0.006973766978 0.00050151037 0)
(0.003230316544 7.973376948e-05 0)
(0.00616603092 0.0004881205893 0)
(0.002829377458 7.553107993e-05 0)
(0.005381939874 0.0004692731814 0)
(0.002449172636 7.072134295e-05 0)
(0.004630308207 0.0004456911682 0)
(0.002093387435 6.540712849e-05 0)
(0.003918845301 0.0004180399646 0)
(0.001765245441 5.967327721e-05 0)
(0.003254252518 0.0003869140753 0)
(0.001467569201 5.358673232e-05 0)
(0.002642315748 0.0003528572296 0)
(0.00120279641 4.720672762e-05 0)
(0.002087968727 0.0003163870599 0)
(0.0009729092668 4.066184653e-05 0)
(0.00159527627 0.0002780868192 0)
(0.0007790868419 3.415446423e-05 0)
(0.001167059248 0.0002388687624 0)
(0.0006215902426 2.781790441e-05 0)
(0.0008048677918 0.0001997460427 0)
(0.0005001249564 2.17028195e-05 0)
(0.0005084972641 0.0001613523092 0)
(0.0004139305447 1.589112026e-05 0)
(0.0002766076208 0.0001242126923 0)
(0.0003615657935 1.051415069e-05 0)
(0.0001068448755 8.905894311e-05 0)
(0.0003408318908 5.716268403e-06 0)
(-4.477175905e-06 5.668156984e-05 0)
(0.0003487792937 1.639492153e-06 0)
(-6.238000682e-05 2.785698224e-05 0)
(0.0003817679138 -1.587786746e-06 0)
(-7.312983379e-05 3.289023938e-06 0)
(0.0004355719956 -3.85519092e-06 0)
(-4.406303742e-05 -1.643757039e-05 0)
(0.0005054680446 -5.079406614e-06 0)
(1.659256702e-05 -3.087810416e-05 0)
(0.0005865224695 -5.204032645e-06 0)
(0.000100075616 -3.978991189e-05 0)
(0.0006736766053 -4.200852761e-06 0)
(0.0001974472477 -4.308169268e-05 0)
(0.0007618852814 -2.07577125e-06 0)
(0.0002997955389 -4.084594169e-05 0)
(0.0008462715538 1.141031326e-06 0)
(0.0003985269963 -3.332621504e-05 0)
(0.0009222213377 5.400715014e-06 0)
(0.0004856057604 -2.087615808e-05 0)
(0.0009854400185 1.063934403e-05 0)
(0.0005536994352 -3.923646778e-06 0)
(0.001031980645 1.678163943e-05 0)
(0.0005962638863 1.706382929e-05 0)
(0.00105824647 2.374254945e-05 0)
(0.0006075707293 4.160554615e-05 0)
(0.001060994244 3.142583436e-05 0)
(0.0005826977588 6.922200915e-05 0)
(0.001037340125 3.972082922e-05 0)
(0.0005175061482 9.94318987e-05 0)
(0.0009847952162 4.849823827e-05 0)
(0.0004086286845 0.0001317364602 0)
(0.0009013355305 5.760492811e-05 0)
(0.0002534944237 0.0001655949145 0)
(0.0007855057555 6.685951205e-05 0)
(5.040080622e-05 0.0002003906708 0)
(0.0006365623623 7.605088325e-05 0)
(-0.0002013572335 0.000235401195 0)
(0.0004546365057 8.494041317e-05 0)
(-0.0005013074243 0.0002697749057 0)
(0.0002409052993 9.326714078e-05 0)
(-0.0008475877004 0.0003025241215 0)
(-2.265383684e-06 0.0001007568783 0)
(-0.001236729055 0.0003325324875 0)
(-0.0002712124299 0.0001071344492 0)
(-0.001663468947 0.0003585918428 0)
(-0.000560937504 0.0001121381717 0)
(-0.002120631817 0.0003794540613 0)
(-0.0008651577637 0.0001155373275 0)
(-0.002599115967 0.0003939063819 0)
(-0.001176451331 0.0001171502296 0)
(-0.003088014966 0.0004008636962 0)
(-0.001486511209 0.0001168606428 0)
(-0.003574894366 0.0003994674184 0)
(-0.00178649857 0.0001146321084 0)
(-0.004046231895 0.0003891813011 0)
(-0.002067464287 0.0001105141909 0)
(-0.004488003344 0.0003698725104 0)
(-0.002320811903 0.0001046401576 0)
(-0.00488636658 0.000341851281 0)
(-0.002538781296 9.72209641e-05 0)
(-0.005228420254 0.0003058766288 0)
(-0.0027148115 8.852795993e-05 0)
(-0.005502896324 0.0002631259359 0)
(-0.002843910909 7.888623209e-05 0)
(-0.005700732145 0.0002151115488 0)
(-0.002922970715 6.86819515e-05 0)
(-0.005815663278 0.0001636752541 0)
(-0.002951019231 5.834399766e-05 0)
(-0.005844693209 0.0001109373938 0)
(-0.00292926505 4.829410407e-05 0)
(-0.005788395907 5.907408254e-05 0)
(-0.002860819275 3.887590288e-05 0)
(-0.005650676031 1.000957471e-05 0)
(-0.00275021978 3.032602055e-05 0)
(-0.005438013929 -3.480609762e-05 0)
(-0.002603056267 2.27983872e-05 0)
(-0.005159121563 -7.428140424e-05 0)
(-0.002425763639 1.637998687e-05 0)
(-0.004823813845 -0.0001075278087 0)
(-0.002225343389 1.110465703e-05 0)
(-0.004443585649 -0.000133932189 0)
(-0.002009064425 6.964825805e-06 0)
(-0.00403074428 -0.000153179053 0)
(-0.001784140633 3.921158514e-06 0)
(-0.00359791764 -0.0001652825255 0)
(-0.001557468446 1.902986434e-06 0)
(-0.003157496287 -0.0001705236069 0)
(-0.001335366077 7.982363668e-07 0)
(-0.002721126635 -0.0001694495103 0)
(-0.001123342576 4.593834709e-07 0)
(-0.002299289675 -0.0001628468832 0)
(-0.0009259392663 7.180194769e-07 0)
(-0.001900967342 -0.0001516717737 0)
(-0.0007466365801 1.397623734e-06 0)
(-0.001533414497 -0.0001369804857 0)
(-0.0005878250304 2.324637479e-06 0)
(-0.001202037031 -0.0001198651651 0)
(-0.0004508374323 3.336887532e-06 0)
(-0.0009103722982 -0.0001013917985 0)
(-0.0003360289717 4.292557955e-06 0)
(-0.0006601675413 -8.255141575e-05 0)
(-0.0002428981741 5.077141772e-06 0)
(-0.00045153506 -6.421319535e-05 0)
(-0.0001702437593 5.605201176e-06 0)
(-0.0002831698675 -4.709420224e-05 0)
(-0.0001163277461 5.819470842e-06 0)
(-0.0001526139927 -3.17406564e-05 0)
(-7.904661559e-05 5.689274544e-06 0)
(-5.653866638e-05 -1.85306464e-05 0)
(-5.608819176e-05 5.2087211e-06 0)
(8.977118132e-06 -7.674563596e-06 0)
(-4.507367935e-05 4.393315616e-06 0)
(4.817014847e-05 7.598977608e-07 0)
(-4.366813654e-05 3.274672135e-06 0)
(6.535982133e-05 6.826681101e-06 0)
(-4.966615159e-05 1.893765063e-06 0)
(6.47641422e-05 1.066790706e-05 0)
(-6.104654423e-05 2.970465567e-07 0)
(5.03597813e-05 1.248480295e-05 0)
(-7.600385022e-05 -1.466223494e-06 0)
(2.579558324e-05 1.251593082e-05 0)
(-9.29661577e-05 -3.34734098e-06 0)
(-5.663546973e-06 1.10190639e-05 0)
(-0.0001105978214 -5.299993963e-06 0)
(-4.116253856e-05 8.25524212e-06 0)
(-0.0001277906894 -7.281852986e-06 0)
(-7.826112409e-05 4.480291841e-06 0)
(-0.0001436525993 -9.255056386e-06 0)
(-0.0001149227839 -6.733155184e-08 0)
(-0.0001574878491 -1.118651863e-05 0)
(-0.0001494914089 -5.169095516e-06 0)
(-0.0001687710674 -1.304980808e-05 0)
(-0.0001806557705 -1.06332974e-05 0)
(-0.0001771198912 -1.482554519e-05 0)
(-0.00020740503 -1.63021857e-05 0)
(-0.0001822590588 -1.65020285e-05 0)
(-0.0002289748013 -2.205560565e-05 0)
(-0.0001839791687 -1.807749238e-05 0)
(-0.0002447824805 -2.781968288e-05 0)
(-0.0001820798647 -1.956303694e-05 0)
(-0.0002543473553 -3.357660136e-05 0)
(-0.0001763126861 -2.098368244e-05 0)
(-0.0002571963692 -3.937426546e-05 0)
(-0.0001663240431 -2.237573368e-05 0)
(-0.0002527710526 -4.531799525e-05 0)
(-0.0001516326419 -2.377769882e-05 0)
(-0.0002403607754 -5.153621568e-05 0)
(-0.0001316928744 -2.520545684e-05 0)
(-0.0002191299544 -5.809558995e-05 0)
(-0.0001061324161 -2.659581469e-05 0)
(-0.0001883304032 -6.482925866e-05 0)
(-7.528619804e-05 -2.770667854e-05 0)
(-0.0001478722281 -7.103285315e-05 0)
(-4.116051226e-05 -2.800159593e-05 0)
(-9.933211619e-05 -7.504189693e-05 0)
(-8.909346381e-06 -2.635306552e-05 0)
(-4.745960822e-05 -7.370987781e-05 0)
(1.119652471e-05 -1.9082095e-05 0)
(-3.657982511e-06 -6.192479296e-05 0)
(1.133042053e-05 -3.080307423e-05 0)
(-0.0001323839351 0.0001713164892 0)
(-4.08933748e-05 0.0001822464338 0)
(-0.0003679457498 0.0002429708968 0)
(-0.000255757057 0.0003505840239 0)
(-0.0006203798607 0.0002482859321 0)
(-0.0005186592542 0.0003863239885 0)
(-0.000841187269 0.0002178806702 0)
(-0.000762609185 0.0003467793661 0)
(-0.001005176887 0.0001707500578 0)
(-0.0009451694672 0.0002701860889 0)
(-0.001099277978 0.0001154028357 0)
(-0.001047785035 0.0001753968257 0)
(-0.001115390199 5.47003574e-05 0)
(-0.001059283956 6.983632774e-05 0)
(-0.001046878186 -1.096346006e-05 0)
(-0.0009711876321 -4.455708711e-05 0)
(-0.0008872237419 -8.195166075e-05 0)
(-0.000775695063 -0.0001679165237 0)
(-0.0006298581367 -0.0001585546002 0)
(-0.0004651129833 -0.0003006368195 0)
(-0.0002684210265 -0.0002406892786 0)
(-3.180671613e-05 -0.0004427063568 0)
(0.0002027878093 -0.0003278260801 0)
(0.0005312287619 -0.0005934091585 0)
(0.0007882739894 -0.0004189474043 0)
(0.001229829137 -0.0007512337182 0)
(0.001490773134 -0.0005125356498 0)
(0.002067964464 -0.0009138286991 0)
(0.002310710798 -0.0006065938197 0)
(0.003047111519 -0.001078033788 0)
(0.003245705441 -0.0006986811131 0)
(0.00416565009 -0.001239927782 0)
(0.004290133101 -0.0007859749136 0)
(0.005418321032 -0.001394919643 0)
(0.005434798146 -0.0008653693836 0)
(0.006795784519 -0.001537884188 0)
(0.006666750198 -0.0009336150673 0)
(0.008284321144 -0.001663368045 0)
(0.007969277424 -0.0009874971704 0)
(0.009865727119 -0.001765856904 0)
(0.009322128062 -0.001024041195 0)
(0.01151744371 -0.001840097693 0)
(0.01070195933 -0.001040728803 0)
(0.01321295698 -0.001881452465 0)
(0.01208301543 -0.001035699118 0)
(0.01492246932 -0.001886244639 0)
(0.01343800318 -0.001007909342 0)
(0.01661382219 -0.001852056949 0)
(0.01473910182 -0.0009572344717 0)
(0.01825361524 -0.001777945021 0)
(0.01595902512 -0.0008844912445 0)
(0.01980843735 -0.00166453635 0)
(0.01707205925 -0.0007913819568 0)
(0.02124611248 -0.001513996956 0)
(0.01805498412 -0.0006803632868 0)
(0.02253686091 -0.001329872727 0)
(0.01888779554 -0.0005544437325 0)
(0.02365429024 -0.00111681617 0)
(0.01955416626 -0.0004167918868 0)
(0.02457624237 -0.0008802190494 0)
(0.02004225537 -0.0002701827969 0)
(0.02528496757 -0.0006259306885 0)
(0.02034409585 -0.0001177284874 0)
(0.02576744197 -0.0003588452536 0)
(0.02045514198 3.602857054e-05 0)
(0.02601839257 -8.477717334e-05 0)
(0.02037586183 0.000186263304 0)
(0.02603254684 0.0001882277007 0)
(0.02011206664 0.0003291592143 0)
(0.02581327014 0.0004526116627 0)
(0.01967371667 0.0004617457963 0)
(0.02536946836 0.0007024669925 0)
(0.01907416609 0.000581633742 0)
(0.02471447339 0.0009329289815 0)
(0.01832951565 0.0006870082669 0)
(0.02386558881 0.001140043371 0)
(0.01745783035 0.0007765611272 0)
(0.02284295368 0.001320845528 0)
(0.01647906589 0.0008495199589 0)
(0.02166963054 0.001473131915 0)
(0.01541352591 0.0009056097928 0)
(0.02037025034 0.001595773264 0)
(0.0142819714 0.0009449741381 0)
(0.01897004172 0.001688283158 0)
(0.01310488673 0.0009681934753 0)
(0.01749482864 0.001751055064 0)
(0.01190200991 0.0009761778087 0)
(0.01597000574 0.001785161913 0)
(0.01069195971 0.0009700906421 0)
(0.0144200444 0.001792245543 0)
(0.009491941024 0.0009512630799 0)
(0.01286802147 0.001774382002 0)
(0.008317567946 0.0009211030568 0)
(0.01133525456 0.001733933857 0)
(0.007182784013 0.0008810095643 0)
(0.009841065577 0.001673392192 0)
(0.006099878909 0.0008323042106 0)
(0.008402668362 0.001595236757 0)
(0.005079572555 0.0007761923983 0)
(0.007035164092 0.001501831309 0)
(0.004131126056 0.0007137697167 0)
(0.005751613402 0.001395373725 0)
(0.003262429822 0.0006460740623 0)
(0.004563123691 0.001277929809 0)
(0.00248000014 0.0005742074803 0)
(0.003478941322 0.001151541108 0)
(0.001788862037 0.0004995855366 0)
(0.002506513595 0.001018422849 0)
(0.001192270603 0.0004239834763 0)
(0.001650902415 0.0008813829034 0)
(0.0006911586394 0.0003490110014 0)
(0.0009152337745 0.000743863479 0)
(0.0002842468327 0.000275858978 0)
(0.0002994364413 0.0006087957679 0)
(-3.127477318e-05 0.0002057623221 0)
(-0.0001999013572 0.0004783073224 0)
(-0.000260022827 0.0001401848225 0)
(-0.0005878512184 0.0003549837275 0)
(-0.0004085034646 8.06259911e-05 0)
(-0.000871907711 0.0002415466986 0)
(-0.000485053429 2.849680489e-05 0)
(-0.001061910495 0.0001406230986 0)
(-0.0004996435681 -1.497708306e-05 0)
(-0.001169847715 5.456152736e-05 0)
(-0.0004635760598 -4.882396646e-05 0)
(-0.001209513132 -1.472161742e-05 0)
(-0.0003891918296 -7.240158762e-05 0)
(-0.001196148848 -6.584240108e-05 0)
(-0.0002892091739 -8.540917136e-05 0)
(-0.001145794782 -9.809851427e-05 0)
(-0.0001764329778 -8.786989827e-05 0)
(-0.001074636259 -0.0001113739163 0)
(-6.333912215e-05 -8.012079937e-05 0)
(-0.0009985898278 -0.0001061863237 0)
(3.832130245e-05 -6.274677719e-05 0)
(-0.0009327294496 -8.3578571e-05 0)
(0.0001177921675 -3.650783264e-05 0)
(-0.0008908356458 -4.499785963e-05 0)
(0.0001654879717 -2.267919461e-06 0)
(-0.0008850934666 7.843897011e-06 0)
(0.0001730813394 3.906481841e-05 0)
(-0.000925908381 7.309896252e-05 0)
(0.0001335122967 8.657800204e-05 0)
(-0.001021838237 0.0001488919041 0)
(4.095749044e-05 0.0001393665398 0)
(-0.001179617283 0.0002333836711 0)
(-0.0001092170496 0.0001965167708 0)
(-0.001404233625 0.0003247885977 0)
(-0.0003204743253 0.0002570672343 0)
(-0.001699024118 0.0004213488195 0)
(-0.0005950787576 0.0003199519913 0)
(-0.002065745223 0.0005212630703 0)
(-0.0009339997815 0.0003839391699 0)
(-0.002504588924 0.0006225942139 0)
(-0.001336741599 0.0004475763226 0)
(-0.003014123682 0.0007231687401 0)
(-0.001801113355 0.0005091566884 0)
(-0.003591155507 0.0008204870099 0)
(-0.002322966612 0.0005667182739 0)
(-0.004230521142 0.0009116754154 0)
(-0.002895935604 0.000618082125 0)
(-0.004924846239 0.000993494297 0)
(-0.003511239524 0.0006609338308 0)
(-0.005664315389 0.001062409337 0)
(-0.004157585468 0.0006929452338 0)
(-0.006436511874 0.001114743395 0)
(-0.004821229394 0.0007119327238 0)
(-0.007226384881 0.001146888886 0)
(-0.005486227038 0.0007160411269 0)
(-0.008016394838 0.001155585887 0)
(-0.006134898924 0.0007039322947 0)
(-0.008786882397 0.001138233861 0)
(-0.006748509831 0.0006749543847 0)
(-0.009516683703 0.00109320479 0)
(-0.007308122119 0.0006292592532 0)
(-0.01018398442 0.00102010476 0)
(-0.007795558826 0.0005678507266 0)
(-0.01076734428 0.0009199308348 0)
(-0.008194418658 0.0004925632001 0)
(-0.01124687508 0.0007951115283 0)
(-0.008490926998 0.0004059561935 0)
(-0.01160533038 0.0006494253319 0)
(-0.00867474741 0.0003112213028 0)
(-0.01182900622 0.0004877608128 0)
(-0.008739693623 0.0002121121065 0)
(-0.01190871879 0.0003160684446 0)
(-0.008684300958 0.0001127006539 0)
(-0.01184058413 0.0001411772397 0)
(-0.008511848661 1.693789356e-05 0)
(-0.01162656261 -2.997081983e-05 0)
(-0.008229698676 -7.188125658e-05 0)
(-0.01127417394 -0.0001913437415 0)
(-0.007848479069 -0.000151424106 0)
(-0.01079385078 -0.0003381763179 0)
(-0.007381160986 -0.0002199589918 0)
(-0.01019976871 -0.0004669822241 0)
(-0.006842697159 -0.0002760059587 0)
(-0.009509414735 -0.0005748300411 0)
(-0.006249819783 -0.0003185407195 0)
(-0.008742653759 -0.0006592679247 0)
(-0.005620209588 -0.0003471871194 0)
(-0.007920825138 -0.0007189735929 0)
(-0.004971682818 -0.0003621989081 0)
(-0.007065920124 -0.0007537739454 0)
(-0.004321383911 -0.0003643874008 0)
(-0.006199597294 -0.000764573903 0)
(-0.00368512972 -0.0003550482102 0)
(-0.005342334225 -0.0007532190726 0)
(-0.003076876081 -0.0003358604965 0)
(-0.004512720815 -0.0007223280244 0)
(-0.00250831775 -0.0003087642874 0)
(-0.003726873941 -0.0006750987115 0)
(-0.001988634927 -0.0002758344325 0)
(-0.002998022163 -0.0006151008587 0)
(-0.001524376674 -0.0002391589983 0)
(-0.002336262222 -0.0005460573331 0)
(-0.001119491342 -0.0002007315194 0)
(-0.001748486679 -0.00047164518 0)
(-0.0007754766018 -0.0001623598035 0)
(-0.001238466945 -0.0003953173189 0)
(-0.0004916375388 -0.0001255945904 0)
(-0.0008070816812 -0.0003201563843 0)
(-0.0002654075987 -9.16809996e-05 0)
(-0.0004526447017 -0.0002487668713 0)
(-9.273188038e-05 -6.153704937e-05 0)
(-0.0001713171399 -0.0001832048115 0)
(3.153860406e-05 -3.575217878e-05 0)
(4.242524658e-05 -0.0001249518063 0)
(0.0001132526615 -1.461408946e-05 0)
(0.0001953355877 -7.492639664e-05 0)
(0.0001585902732 1.842035647e-06 0)
(0.0002949218159 -3.353517042e-05 0)
(0.0001737547307 1.378330822e-05 0)
(0.0003490221566 -7.432437166e-07 0)
(0.0001647355518 2.152384541e-05 0)
(0.0003654263283 2.381619479e-05 0)
(0.0001371358444 2.547392089e-05 0)
(0.0003516000074 4.074372204e-05 0)
(9.606411864e-05 2.610078222e-05 0)
(0.0003144926836 5.07918789e-05 0)
(4.606651074e-05 2.389741616e-05 0)
(0.0002604181699 5.480055934e-05 0)
(-8.897093915e-06 1.935702399e-05 0)
(0.0001949874597 5.364649041e-05 0)
(-6.545986016e-05 1.295328241e-05 0)
(0.0001230815024 4.819868839e-05 0)
(-0.0001208211871 5.126355635e-06 0)
(4.885594111e-05 3.928945066e-05 0)
(-0.0001727107128 -3.728204861e-06 0)
(-2.422793943e-05 2.768791463e-05 0)
(-0.0002193327174 -1.327096799e-05 0)
(-9.335086621e-05 1.407998969e-05 0)
(-0.0002592945784 -2.323032703e-05 0)
(-0.0001562637129 -9.531333225e-07 0)
(-0.0002915260932 -3.341540529e-05 0)
(-0.0002111979358 -1.695742458e-05 0)
(-0.0003151756427 -4.373176175e-05 0)
(-0.00025675628 -3.363081416e-05 0)
(-0.0003294916397 -5.419733233e-05 0)
(-0.0002917813929 -5.084955448e-05 0)
(-0.0003336944234 -6.494302637e-05 0)
(-0.0003152096391 -6.868378415e-05 0)
(-0.0003268707393 -7.617205039e-05 0)
(-0.0003259264679 -8.737043174e-05 0)
(-0.0003079564393 -8.804204445e-05 0)
(-0.0003226796033 -0.0001071920276 0)
(-0.0002759127091 -0.0001004166338 0)
(-0.0003041430297 -0.0001281930547 0)
(-0.0002302542197 -0.0001124286112 0)
(-0.0002692501176 -0.0001496544666 0)
(-0.0001720992588 -0.000121835061 0)
(-0.0002180283909 -0.0001692757736 0)
(-0.0001058854979 -0.0001242153098 0)
(-0.0001529933514 -0.0001820737079 0)
(-4.162377293e-05 -0.0001122478468 0)
(-8.113809619e-05 -0.0001793372357 0)
(2.566891531e-06 -7.518624942e-05 0)
(-1.80087426e-05 -0.0001478441166 0)
(1.107730612e-05 -7.015905517e-05 0)
(-0.0001492669855 0.0003635451384 0)
(-4.264113697e-05 0.0003238215219 0)
(-0.0004040618277 0.0004959400278 0)
(-0.0002642130216 0.0005980570692 0)
(-0.0006621954928 0.0004866826721 0)
(-0.0005211081647 0.0006379074183 0)
(-0.0008672463684 0.0004008117512 0)
(-0.000740599878 0.0005464366444 0)
(-0.0009885105798 0.0002763703142 0)
(-0.0008754950467 0.0003875762664 0)
(-0.001008625789 0.0001311253918 0)
(-0.0009037518695 0.0001934829631 0)
(-0.000915996757 -2.843131627e-05 0)
(-0.0008110890675 -2.270782496e-05 0)
(-0.0007010414968 -0.0002008761304 0)
(-0.000586359669 -0.0002570954081 0)
(-0.0003547757403 -0.0003863392931 0)
(-0.0002195020894 -0.0005092794148 0)
(0.0001315665295 -0.0005849140366 0)
(0.0002992844764 -0.0007794957206 0)
(0.000766273165 -0.0007959720242 0)
(0.000979501878 -0.001067317243 0)
(0.001556503529 -0.001017808431 0)
(0.001829678172 -0.001370962415 0)
(0.002507561073 -0.001247568482 0)
(0.002856651014 -0.001687125121 0)
(0.003622172227 -0.001481251401 0)
(0.004064770284 -0.002010933691 0)
(0.004899785152 -0.001713765745 0)
(0.005455117701 -0.002336002117 0)
(0.006335919672 -0.001939030575 0)
(0.007024762488 -0.00265453005 0)
(0.007921620171 -0.002150140319 0)
(0.008766093253 -0.002957482722 0)
(0.009643037284 -0.002339608821 0)
(0.01066627409 -0.003234868311 0)
(0.01148121313 -0.002499702306 0)
(0.01270687749 -0.003476130141 0)
(0.0134121 -0.002622852603 0)
(0.01486375857 -0.00367065954 0)
(0.01540687387 -0.002702126871 0)
(0.01710722283 -0.0038084031 0)
(0.017432551 -0.002731712591 0)
(0.01940253156 -0.003880522017 0)
(0.01945290379 -0.002707363588 0)
(0.02171075344 -0.003880038596 0)
(0.02142963112 -0.002626753008 0)
(0.02398993352 -0.003802389835 0)
(0.02332370326 -0.002489686445 0)
(0.0261965106 -0.003645820322 0)
(0.02509677914 -0.002298144063 0)
(0.02828687653 -0.003411555412 0)
(0.02671258513 -0.002056145464 0)
(0.03021895179 -0.003103735747 0)
(0.02813815473 -0.001769451826 0)
(0.03195365657 -0.002729120762 0)
(0.02934484534 -0.001445139727 0)
(0.03345617505 -0.002296599542 0)
(0.03030908142 -0.001091164338 0)
(0.03469697312 -0.001816558347 0)
(0.03101279093 -0.0007155220709 0)
(0.03565268213 -0.001300292968 0)
(0.03144451692 -0.0003260690557 0)
(0.03630493239 -0.0007592715544 0)
(0.03159780072 6.795506724e-05 0)
(0.03664537093 -0.0002043019357 0)
(0.03147152655 0.0004558503356 0)
(0.03666845207 0.000351214176 0)
(0.03107192714 0.0008278780356 0)
(0.03637551684 0.0008923283375 0)
(0.03041116924 0.001176230008 0)
(0.03577653705 0.001407118475 0)
(0.02950650874 0.00149446901 0)
(0.03488708648 0.001885535704 0)
(0.02837949535 0.001777479924 0)
(0.03372819469 0.002319198916 0)
(0.02705492768 0.002021398217 0)
(0.03232492636 0.002701518628 0)
(0.02556098448 0.002223664752 0)
(0.0307067378 0.003027480502 0)
(0.02392684604 0.002382938354 0)
(0.02890588467 0.003294031166 0)
(0.02218299233 0.002498984542 0)
(0.02695576448 0.003499476334 0)
(0.02036008924 0.002572695024 0)
(0.0248913581 0.003643874855 0)
(0.01848825275 0.002605880812 0)
(0.02274763095 0.003728726933 0)
(0.01659640072 0.002601103253 0)
(0.02055884794 0.003756788644 0)
(0.01471170729 0.002561476678 0)
(0.01835783002 0.003731841049 0)
(0.01285918477 0.002490452968 0)
(0.01617531836 0.003658411387 0)
(0.01106141466 0.002391610167 0)
(0.0140394873 0.003541477035 0)
(0.009338414273 0.002268475343 0)
(0.01197562028 0.003386179218 0)
(0.007707618691 0.00212441018 0)
(0.01000594095 0.003197595229 0)
(0.006183943 0.001962588243 0)
(0.008149577295 0.002980603781 0)
(0.004779862508 0.001786085094 0)
(0.006422600481 0.002739881115 0)
(0.003505442979 0.001598068482 0)
(0.004838110223 0.002480057353 0)
(0.00236830528 0.001402147208 0)
(0.003406441445 0.00220595799 0)
(0.001373606695 0.001202778161 0)
(0.00213470513 0.00192300803 0)
(0.0005232095236 0.001004716494 0)
(0.001026863278 0.001638081922 0)
(-0.0001852527367 0.0008118724097 0)
(8.424401898e-05 0.001358440093 0)
(-0.0007571296329 0.0006277475139 0)
(-0.0006990217171 0.001089280374 0)
(-0.001200455605 0.0004561687557 0)
(-0.001331120102 0.0008359309954 0)
(-0.001526058374 0.000300989403 0)
(-0.001823445789 0.0006039474061 0)
(-0.001747425803 0.0001657789015 0)
(-0.002190574541 0.0003986386738 0)
(-0.001880383183 5.357965545e-05 0)
(-0.002449938581 0.0002246961024 0)
(-0.001942604101 -3.327649225e-05 0)
(-0.002621329058 8.587929608e-05 0)
(-0.001953149908 -9.334289876e-05 0)
(-0.002726389513 -1.519966148e-05 0)
(-0.001931437318 -0.0001260985906 0)
(-0.002787685107 -7.73409016e-05 0)
(-0.001896799671 -0.0001319179478 0)
(-0.002827768746 -0.0001006262802 0)
(-0.001867763505 -0.0001120220792 0)
(-0.00286857945 -8.648729208e-05 0)
(-0.001861432185 -6.831182352e-05 0)
(-0.002930551944 -3.748611075e-05 0)
(-0.001893016233 -3.18081713e-06 0)
(-0.003031958215 4.293412012e-05 0)
(-0.001975526194 8.068149031e-05 0)
(-0.003188425794 0.0001507323148 0)
(-0.002119599264 0.0001804666802 0)
(-0.003412633014 0.0002815627734 0)
(-0.002333473298 0.0002933788226 0)
(-0.003714186136 0.0004310174247 0)
(-0.002623054255 0.0004167050206 0)
(-0.004099655088 0.0005948058778 0)
(-0.002992043967 0.0005478194569 0)
(-0.00457272657 0.0007688422248 0)
(-0.003442087697 0.0006841253493 0)
(-0.005134430261 0.0009492402616 0)
(-0.003972885746 0.0008229474905 0)
(-0.005783383699 0.001132227527 0)
(-0.004582245961 0.0009613978093 0)
(-0.006516005653 0.001313991819 0)
(-0.005266054673 0.001096240536 0)
(-0.007326660402 0.001490493828 0)
(-0.006018156352 0.001223789853 0)
(-0.008207701469 0.001657286483 0)
(-0.00683016682 0.001339869853 0)
(-0.009149411676 0.001809384356 0)
(-0.00769126019 0.001439858008 0)
(-0.01013986035 0.001941221995 0)
(-0.008587975749 0.001518828251 0)
(-0.0111647216 0.002046736938 0)
(-0.009504125072 0.001571794695 0)
(-0.01220712017 0.002119589176 0)
(-0.01042084043 0.001594047083 0)
(-0.0132475737 0.002153518955 0)
(-0.01131684123 0.001581559122 0)
(-0.01426409467 0.002142825356 0)
(-0.01216895166 0.001531427208 0)
(-0.01523253007 0.002082944067 0)
(-0.01295289917 0.001442278406 0)
(-0.0161271922 0.001971040818 0)
(-0.01364435324 0.001314571212 0)
(-0.01692180208 0.001806542975 0)
(-0.01422013749 0.001150741468 0)
(-0.0175906726 0.001591470884 0)
(-0.01465952086 0.0009551809499 0)
(-0.01811015532 0.001330553774 0)
(-0.01494534776 0.0007340130104 0)
(-0.01845997124 0.001031097282 0)
(-0.01506507577 0.000494887513 0)
(-0.01862422652 0.0007025458148 0)
(-0.01501179021 0.0002468475596 0)
(-0.01859273159 0.0003564338183 0)
(-0.01478504784 -2.082603568e-07 0)
(-0.01836203252 6.078443268e-06 0)
(-0.01439090061 -0.0002371727087 0)
(-0.01793705918 -0.0003350455804 0)
(-0.01384003197 -0.0004569263625 0)
(-0.01732678756 -0.0006562122938 0)
(-0.01314664868 -0.0006536526122 0)
(-0.01654512387 -0.0009490562959 0)
(-0.01232937807 -0.0008223108788 0)
(-0.01561133157 -0.001205583678 0)
(-0.01141055554 -0.0009588931572 0)
(-0.01454927319 -0.001419069423 0)
(-0.01041467031 -0.001060743704 0)
(-0.01338554384 -0.001584828047 0)
(-0.009367382741 -0.001126789459 0)
(-0.01214870786 -0.001700287356 0)
(-0.008294521294 -0.00115752326 0)
(-0.01086811763 -0.001765041043 0)
(-0.007221083081 -0.001154878625 0)
(-0.009572788166 -0.001780765154 0)
(-0.006170328966 -0.001122021302 0)
(-0.008290338865 -0.001751000427 0)
(-0.005163010678 -0.001063092775 0)
(-0.007046055965 -0.001680840891 0)
(-0.004216779359 -0.0009829255503 0)
(-0.005862121292 -0.001576566188 0)
(-0.003345780264 -0.0008867433043 0)
(-0.004757043438 -0.001445236822 0)
(-0.002560451124 -0.0007798657309 0)
(-0.003745302151 -0.001294285893 0)
(-0.001867507817 -0.000667437173 0)
(-0.002837207869 -0.001131123533 0)
(-0.001270097215 -0.0005541935811 0)
(-0.002038956 -0.0009627844921 0)
(-0.0007681059384 -0.0004442774994 0)
(-0.001352858619 -0.0007956364977 0)
(-0.0003585707776 -0.0003411078365 0)
(-0.000777718427 -0.0006351515017 0)
(-3.618214932e-05 -0.0002473080407 0)
(-0.0003093135615 -0.0004857616205 0)
(0.0002061927224 -0.0001646962648 0)
(5.904320509e-05 -0.000350789354 0)
(0.000376967189 -9.431750068e-05 0)
(0.000335924853 -0.0002324548614 0)
(0.0004853076314 -3.650645884e-05 0)
(0.0005311861875 -0.0001319248358 0)
(0.0005406418906 8.975305132e-06 0)
(0.0006554252528 -4.943532818e-05 0)
(0.0005522355251 4.278018937e-05 0)
(0.0007194592472 1.554288449e-05 0)
(0.0005289003754 6.585109937e-05 0)
(0.0007338393097 6.407484282e-05 0)
(0.0004787913667 7.931437983e-05 0)
(0.0007085307472 9.758207859e-05 0)
(0.0004092859608 8.439423088e-05 0)
(0.0006527096859 0.0001177005384 0)
(0.0003269173825 8.234435089e-05 0)
(0.0005746489975 0.0001261705724 0)
(0.0002373536053 7.439431369e-05 0)
(0.0004816597964 0.000124750295 0)
(0.0001454112759 6.170681638e-05 0)
(0.0003800779273 0.0001151476818 0)
(5.510064852e-05 4.534261848e-05 0)
(0.000275290332 9.896112943e-05 0)
(-3.030757605e-05 2.623021181e-05 0)
(0.0001717906062 7.763432312e-05 0)
(-0.0001081872622 5.133643934e-06 0)
(7.326141201e-05 5.241398239e-05 0)
(-0.0001764449604 -1.738088432e-05 0)