/*--------------------------------*- C++ -*----------------------------------*\
| =========                 |                                                 |
| \\      /  F ield         | OpenFOAM: The Open Source CFD Toolbox           |
|  \\    /   O peration     | Version:  2412                                  |
|   \\  /    A nd           | Website:  www.openfoam.com                      |
|    \\/     M anipulation  |                                                 |
\*---------------------------------------------------------------------------*/
FoamFile
{
    version     2.0;
    format      ascii;
    arch        "LSB;label=32;scalar=64";
    class       volScalarField;
    location    "0.1";
    object      dpdt;
}
// * * * * * * * * * * * * * * * * * * * * * * * * * * * * * * * * * * * * * //

dimensions      [1 -1 -3 0 0 0 0];

internalField   nonuniform List<scalar> 
12008
(
49762.89949
49762.89655
49762.89527
49762.89697
49762.90204
49762.91072
49762.92326
49762.94001
49762.96133
49762.98766
49763.01943
49763.05708
49763.10098
49763.15144
49763.20863
49763.27252
49763.34292
49763.41937
49763.50116
49763.5873
49763.67655
49763.76747
49763.85847
49763.94787
49764.03403
49764.11545
49764.19078
49764.259
49764.31936
49764.37145
49764.41503
49764.45003
49764.47682
49764.49603
49764.50835
49764.51448
49764.5151
49764.51092
49764.50257
49764.49065
49764.47564
49764.45795
49764.43799
49764.41606
49764.39239
49764.36714
49764.34043
49764.31237
49764.28301
49764.25237
49764.22051
49764.18767
49764.15375
49764.1184
49764.08171
49764.04371
49764.00446
49763.96404
49763.92257
49763.88017
49763.837
49763.7933
49763.74936
49763.70555
49763.66231
49763.62013
49763.57964
49763.54152
49763.50651
49763.47543
49763.4491
49763.42839
49763.41413
49763.40712
49763.40802
49763.41736
49763.43551
49763.46257
49763.49837
49763.54243
49763.59402
49763.65211
49763.71542
49763.7825
49763.8518
49763.92171
49763.9907
49764.05737
49764.1206
49764.17949
49764.23344
49764.28218
49764.32568
49764.364
49764.39728
49764.42591
49764.45037
49764.47119
49764.48884
49764.50377
49764.51639
49764.52708
49764.53611
49764.54377
49764.55027
49764.5558
49764.56052
49764.56456
49764.56801
49764.57092
49764.57331
49764.57516
49764.57648
49764.57733
49764.57772
49764.57765
49764.57715
49764.5763
49764.57512
49764.57364
49764.57187
49764.56988
49764.5677
49764.56537
49764.56291
49764.56034
49764.55774
49764.55517
49764.55263
49764.55013
49764.54771
49764.5454
49764.54319
49764.54108
49764.53905
49764.53713
49764.53532
49764.53369
49764.53239
49764.53163
49762.90284
49762.89994
49762.89897
49762.90089
49762.90593
49762.91443
49762.92666
49762.943
49762.96382
49762.98953
49763.02061
49763.05752
49763.10062
49763.15023
49763.20654
49763.26959
49763.33919
49763.41494
49763.49616
49763.58189
49763.67092
49763.76181
49763.85296
49763.94267
49764.02928
49764.11124
49764.18718
49764.25602
49764.31696
49764.36953
49764.41377
49764.44939
49764.47645
49764.49587
49764.50839
49764.51468
49764.51543
49764.51132
49764.50302
49764.49109
49764.47607
49764.45836
49764.43835
49764.41635
49764.3926
49764.36728
49764.3405
49764.31236
49764.28292
49764.25219
49764.22013
49764.18718
49764.15325
49764.11778
49764.08091
49764.04275
49764.00333
49763.96272
49763.92102
49763.87837
49763.83495
49763.79099
49763.74678
49763.70272
49763.65922
49763.61679
49763.5761
49763.53783
49763.50276
49763.47174
49763.4456
49763.42522
49763.41147
49763.40515
49763.40694
49763.41738
49763.4368
49763.46528
49763.5026
49763.54823
49763.60135
49763.66088
49763.72547
49763.7936
49763.86366
49763.93402
49764.00311
49764.06953
49764.13217
49764.19018
49764.24302
49764.29053
49764.33273
49764.36976
49764.40186
49764.4294
49764.45288
49764.4728
49764.48968
49764.50396
49764.51606
49764.52631
49764.53502
49764.54242
49764.54874
49764.55413
49764.55873
49764.56273
49764.56614
49764.56902
49764.57142
49764.5733
49764.57467
49764.57556
49764.57599
49764.57595
49764.57551
49764.57471
49764.57359
49764.57217
49764.57047
49764.56853
49764.56638
49764.56407
49764.56165
49764.55912
49764.55655
49764.554
49764.5515
49764.54904
49764.54665
49764.54436
49764.54217
49764.54009
49764.53811
49764.53627
49764.53458
49764.53311
49764.53193
49764.53114
49762.9051
49762.90185
49762.90076
49762.90255
49762.90727
49762.91526
49762.92684
49762.94234
49762.96221
49762.98691
49763.01691
49763.0527
49763.0947
49763.14328
49763.19868
49763.26103
49763.33019
49763.40583
49763.4873
49763.57369
49763.66375
49763.75601
49763.84878
49763.94028
49764.02872
49764.11244
49764.18999
49764.2602
49764.32223
49764.37557
49764.42013
49764.45613
49764.48335
49764.50239
49764.5145
49764.52032
49764.52058
49764.51596
49764.50714
49764.49475
49764.47928
49764.4612
49764.44086
49764.41857
49764.39457
49764.36904
49764.3421
49764.31382
49764.28425
49764.25337
49764.22106
49764.18803
49764.15413
49764.11854
49764.08146
49764.04308
49764.00342
49763.96251
49763.92045
49763.87737
49763.83345
49763.78893
49763.74409
49763.69932
49763.65506
49763.61183
49763.57028
49763.53115
49763.49525
49763.46347
49763.4367
49763.41585
49763.40187
49763.39562
49763.39785
49763.40912
49763.42978
49763.45991
49763.49925
49763.54723
49763.60292
49763.66511
49763.73237
49763.80303
49763.87535
49763.94758
49764.01804
49764.08524
49764.14801
49764.20558
49764.25747
49764.30363
49764.34433
49764.37992
49764.41054
49764.43649
49764.45844
49764.47699
49764.49267
49764.50593
49764.51718
49764.52676
49764.53494
49764.54194
49764.54791
49764.55298
49764.55743
49764.5614
49764.56476
49764.56761
49764.56997
49764.57187
49764.57328
49764.57421
49764.57465
49764.57462
49764.57422
49764.57345
49764.57234
49764.57094
49764.56927
49764.56734
49764.5652
49764.56289
49764.56047
49764.55797
49764.55541
49764.55286
49764.55036
49764.54792
49764.54554
49764.54326
49764.54108
49764.53901
49764.53707
49764.53526
49764.53363
49764.53221
49764.53104
49764.53012
49762.90525
49762.90162
49762.90016
49762.90149
49762.90557
49762.9127
49762.92321
49762.93748
49762.95597
49762.97919
49763.00766
49763.04193
49763.0825
49763.12984
49763.18429
49763.24608
49763.31519
49763.39135
49763.474
49763.56222
49763.65473
49763.74995
49763.84603
49763.94098
49764.03283
49764.1197
49764.19996
49764.27235
49764.33598
49764.39032
49764.43521
49764.47125
49764.49808
49764.51617
49764.52719
49764.53184
49764.53089
49764.52511
49764.51519
49764.50183
49764.48545
49764.4666
49764.44563
49764.42283
49764.39842
49764.37255
49764.34536
49764.31688
49764.28716
49764.25617
49764.2237
49764.19042
49764.15645
49764.12097
49764.08364
49764.045
49764.00502
49763.96373
49763.92118
49763.87748
49763.83282
49763.78741
49763.74155
49763.69559
49763.65002
49763.60535
49763.56222
49763.52141
49763.48381
49763.4503
49763.42187
49763.39958
49763.38444
49763.37745
49763.37946
49763.39113
49763.41286
49763.44477
49763.4866
49763.5377
49763.59703
49763.66324
49763.73472
49763.80961
49763.88596
49763.96176
49764.03513
49764.10439
49764.16827
49764.22599
49764.27707
49764.32191
49764.3615
49764.39546
49764.42382
49764.44764
49764.46757
49764.48426
49764.49828
49764.51011
49764.52017
49764.52879
49764.53622
49764.54265
49764.5482
49764.55287
49764.55703
49764.56084
49764.56408
49764.56686
49764.56915
49764.57101
49764.57239
49764.57329
49764.57373
49764.57375
49764.57339
49764.57262
49764.57147
49764.57003
49764.56834
49764.56638
49764.56421
49764.56187
49764.55942
49764.5569
49764.55433
49764.55175
49764.54922
49764.54676
49764.54437
49764.54207
49764.53988
49764.53782
49764.53589
49764.5341
49764.53246
49764.53103
49764.5298
49764.52877
49762.90329
49762.89943
49762.89753
49762.8982
49762.90137
49762.90732
49762.91636
49762.92896
49762.94561
49762.96685
49762.99328
49763.02553
49763.06423
49763.10997
49763.16326
49763.22446
49763.29372
49763.3709
49763.45551
49763.54665
49763.64298
49763.74275
49763.84387
49763.94405
49764.04097
49764.13245
49764.21663
49764.29207
49764.35782
49764.41339
49764.45869
49764.49432
49764.52007
49764.53669
49764.546
49764.54879
49764.54595
49764.53837
49764.52679
49764.51193
49764.49424
49764.47426
49764.45238
49764.42885
49764.40388
49764.37759
49764.35007
49764.32136
49764.29149
49764.26042
49764.22795
49764.19423
49764.16017
49764.12483
49764.08735
49764.04842
49764.00807
49763.9663
49763.92314
49763.87866
49763.83303
49763.78644
49763.73918
49763.69158
49763.64413
49763.59738
49763.55199
49763.50872
49763.46845
49763.43221
49763.40115
49763.37644
49763.35925
49763.35071
49763.35186
49763.36352
49763.38622
49763.42012
49763.46498
49763.52008
49763.58426
49763.65594
49763.73331
49763.81425
49763.89649
49763.97767
49764.05553
49764.12809
49764.19393
49764.25216
49764.30238
49764.34645
49764.38456
49764.41577
49764.44146
49764.46257
49764.47989
49764.49418
49764.50607
49764.51606
49764.52459
49764.53197
49764.53845
49764.54416
49764.54917
49764.55356
49764.55745
49764.56078
49764.56383
49764.56663
49764.56877
49764.57059
49764.57194
49764.57281
49764.57322
49764.57322
49764.57283
49764.57203
49764.57088
49764.56941
49764.56763
49764.56559
49764.56335
49764.56094
49764.55844
49764.55587
49764.55325
49764.55063
49764.54804
49764.54553
49764.5431
49764.54076
49764.53854
49764.53646
49764.53452
49764.53273
49764.53109
49764.52962
49764.52832
49764.5272
49762.89949
49762.89546
49762.89308
49762.89292
49762.89491
49762.89934
49762.90654
49762.91701
49762.93128
49762.94997
49762.97377
49763.0034
49763.03967
49763.08332
49763.13508
49763.19551
49763.265
49763.34358
49763.43088
49763.52606
49763.62768
49763.73378
49763.84191
49763.94932
49764.05322
49764.15098
49764.24038
49764.31978
49764.38815
49764.44505
49764.49057
49764.52543
49764.54956
49764.56397
49764.57078
49764.57093
49764.56548
49764.55542
49764.54159
49764.52468
49764.50528
49764.48385
49764.46077
49764.43631
49764.41064
49764.38385
49764.35599
49764.32706
49764.29705
49764.26592
49764.23353
49764.19973
49764.16533
49764.12985
49764.09262
49764.05339
49764.01265
49763.97034
49763.92647
49763.88108
49763.83429
49763.78626
49763.73725
49763.6876
49763.63775
49763.58824
49763.53974
49763.49308
49763.44921
49763.40927
49763.37451
49763.34629
49763.32598
49763.31496
49763.31449
49763.32564
49763.34913
49763.38523
49763.43371
49763.49379
49763.56412
49763.64289
49763.72798
49763.81699
49763.90725
49763.99588
49764.08004
49764.15725
49764.22588
49764.28496
49764.33433
49764.37707
49764.41299
49764.44095
49764.46324
49764.48095
49764.49503
49764.50636
49764.51564
49764.52343
49764.53013
49764.53604
49764.54139
49764.54626
49764.55068
49764.55467
49764.55824
49764.56143
49764.56437
49764.56666
49764.56872
49764.57064
49764.57197
49764.57276
49764.57314
49764.57309
49764.57264
49764.57179
49764.57057
49764.56901
49764.56716
49764.56503
49764.56266
49764.56016
49764.55755
49764.55489
49764.55219
49764.54949
49764.54682
49764.54423
49764.54173
49764.53933
49764.53706
49764.53494
49764.53297
49764.53115
49764.52949
49764.528
49764.52665
49764.52548
49762.89425
49762.89008
49762.88716
49762.88599
49762.88655
49762.88909
49762.89404
49762.90188
49762.91321
49762.9287
49762.94915
49762.97545
49763.00855
49763.04944
49763.0991
49763.15838
49763.22797
49763.30818
49763.39885
49763.4992
49763.60774
49763.7222
49763.83963
49763.95665
49764.06975
49764.1757
49764.2718
49764.35612
49764.42755
49764.48578
49764.53111
49764.56462
49764.58646
49764.59785
49764.60122
49764.59788
49764.58902
49764.57577
49764.55904
49764.53957
49764.51802
49764.49482
49764.47032
49764.44475
49764.41827
49764.39094
49764.36274
49764.33365
49764.3036
49764.27251
49764.24026
49764.20671
49764.17184
49764.13638
49764.09921
49764.05987
49764.01884
49763.97601
49763.93137
49763.88495
49763.83683
49763.78714
49763.73606
49763.68392
49763.63112
49763.57819
49763.52582
49763.47487
49763.42638
49763.38159
49763.3419
49763.3089
49763.28424
49763.26959
49763.26657
49763.27655
49763.30056
49763.33905
49763.39182
49763.45797
49763.53594
49763.62361
49763.71852
49763.81792
49763.91869
49764.01724
49764.10982
49764.19316
49764.26531
49764.32547
49764.37393
49764.41404
49764.44641
49764.47056
49764.48869
49764.50224
49764.51241
49764.52022
49764.52645
49764.53167
49764.53629
49764.54057
49764.54465
49764.5486
49764.5524
49764.55599
49764.5593
49764.56233
49764.56507
49764.56741
49764.56944
49764.57104
49764.57223
49764.57306
49764.57349
49764.57339
49764.57283
49764.57188
49764.57057
49764.5689
49764.56692
49764.56465
49764.56215
49764.55952
49764.55679
49764.55398
49764.55116
49764.54834
49764.54556
49764.54285
49764.54026
49764.53778
49764.53544
49764.53325
49764.53123
49764.52937
49764.52768
49764.52616
49764.52478
49764.52358
49762.88805
49762.88374
49762.88019
49762.87787
49762.87672
49762.87704
49762.87928
49762.88394
49762.89167
49762.90323
49762.91952
49762.94159
49762.9706
49763.00781
49763.05453
49763.11201
49763.18132
49763.26318
49763.35777
49763.46447
49763.58173
49763.70693
49763.83643
49763.96595
49764.09096
49764.20734
49764.31178
49764.402
49764.47684
49764.53619
49764.58069
49764.61181
49764.63061
49764.63814
49764.6369
49764.62902
49764.61588
49764.59871
49764.57845
49764.55591
49764.53179
49764.50651
49764.48038
49764.4536
49764.42625
49764.39837
49764.3699
49764.34075
49764.31078
49764.27989
49764.24792
49764.21473
49764.18018
49764.14422
49764.10699
49764.06802
49764.02686
49763.9835
49763.93809
49763.89059
49763.84102
49763.78945
49763.73602
49763.681
49763.62474
49763.56775
49763.51071
49763.45452
49763.40029
49763.34937
49763.30336
49763.26409
49763.23357
49763.21389
49763.20711
49763.21506
49763.23918
49763.28021
49763.338
49763.41149
49763.49878
49763.59736
49763.70442
49763.8169
49763.93122
49764.04279
49764.14642
49764.23755
49764.31377
49764.37476
49764.42128
49764.45754
49764.48523
49764.50424
49764.51711
49764.52562
49764.53118
49764.53492
49764.53769
49764.54007
49764.54244
49764.54497
49764.54775
49764.55077
49764.55397
49764.5572
49764.56035
49764.5633
49764.566
49764.5684
49764.57051
49764.57202
49764.57308
49764.57391
49764.5742
49764.57399
49764.57336
49764.57233
49764.5709
49764.56908
49764.56692
49764.56446
49764.56181
49764.55904
49764.55614
49764.55315
49764.55015
49764.54718
49764.54425
49764.54141
49764.53869
49764.5361
49764.53366
49764.53139
49764.52929
49764.52738
49764.52565
49764.5241
49764.52271
49764.5215
49762.88143
49762.87697
49762.87271
49762.86905
49762.86594
49762.86368
49762.86274
49762.86364
49762.86708
49762.87387
49762.88504
49762.90181
49762.92556
49762.95789
49763.00051
49763.05515
49763.12344
49763.20667
49763.30553
49763.41974
49763.54776
49763.68654
49763.83156
49763.9772
49764.11749
49764.24703
49764.36166
49764.45873
49764.53714
49764.59706
49764.63965
49764.66665
49764.68166
49764.68473
49764.67721
49764.66358
49764.64519
49764.62333
49764.59892
49764.57283
49764.54576
49764.51813
49764.49021
49764.46214
49764.43395
49764.4056
49764.37697
49764.34792
49764.31825
49764.28778
49764.2563
49764.22364
49764.1896
49764.15387
49764.11651
49764.07759
49764.03697
49763.99306
49763.94692
49763.89835
49763.84726
49763.79367
49763.73765
49763.67941
49763.61922
49763.55755
49763.49505
49763.43262
49763.37144
49763.31297
49763.25902
49763.21173
49763.17352
49763.14703
49763.13492
49763.13968
49763.1633
49763.20695
49763.27059
49763.3529
49763.45144
49763.56314
49763.68487
49763.81349
49763.94512
49764.07383
49764.19196
49764.29273
49764.37322
49764.43407
49764.47728
49764.50762
49764.52866
49764.54103
49764.54736
49764.54983
49764.55006
49764.54926
49764.54827
49764.54764
49764.54769
49764.54852
49764.55009
49764.5523
49764.55499
49764.55799
49764.56109
49764.56411
49764.56692
49764.56945
49764.57164
49764.57337
49764.57458
49764.57515
49764.57535
49764.57511
49764.57438
49764.57317
49764.57154
49764.56952
49764.56717
49764.56452
49764.56167
49764.55869
49764.55558
49764.55239
49764.54917
49764.54599
49764.54288
49764.53987
49764.53699
49764.53428
49764.53172
49764.52934
49764.52716
49764.52517
49764.52339
49764.52182
49764.52042
49764.51921
49762.87496
49762.87035
49762.86531
49762.86016
49762.85482
49762.84964
49762.84504
49762.84159
49762.83996
49762.84107
49762.84603
49762.85622
49762.87329
49762.89919
49762.9361
49762.98639
49763.05242
49763.13627
49763.23943
49763.36222
49763.50329
49763.65914
49763.82404
49763.99046
49764.1503
49764.29634
49764.42327
49764.52808
49764.60988
49764.66947
49764.70876
49764.73006
49764.73912
49764.73589
49764.72096
49764.70048
49764.67588
49764.64854
49764.6194
49764.58934
49764.55902
49764.52884
49764.49902
49764.46966
49764.44069
49764.41201
49764.38343
49764.35472
49764.32562
49764.29586
49764.26518
49764.23334
49764.20006
49764.165
49764.12786
49764.08974
49764.04872
49764.00474
49763.95815
49763.90862
49763.85605
49763.80038
49763.74161
49763.67987
49763.61534
49763.54841
49763.47969
49763.41001
49763.34059
49763.273
49763.20925
49763.15183
49763.10368
49763.06812
49763.04864
49763.04862
49763.07088
49763.11719
49763.18767
49763.28057
49763.39256
49763.51969
49763.65859
49763.8066
49763.96023
49764.11186
49764.24925
49764.36167
49764.44599
49764.50459
49764.54287
49764.56352
49764.57465
49764.57905
49764.57745
49764.57287
49764.56716
49764.56149
49764.55664
49764.55305
49764.55092
49764.55025
49764.55088
49764.55256
49764.55502
49764.55802
49764.56128
49764.56456
49764.56766
49764.57048
49764.57289
49764.57481
49764.57619
49764.57702
49764.57708
49764.57664
49764.57581
49764.57444
49764.57256
49764.57031
49764.56773
49764.56485
49764.56174
49764.55848
49764.55511
49764.55167
49764.5482
49764.54477
49764.54144
49764.53823
49764.53517
49764.53229
49764.52959
49764.52709
49764.5248
49764.52273
49764.52088
49764.51927
49764.51787
49764.5167
49762.86928
49762.86457
49762.8587
49762.85191
49762.84413
49762.83567
49762.82697
49762.81853
49762.81106
49762.80549
49762.80301
49762.80515
49762.81382
49762.83134
49762.86044
49762.90424
49762.96605
49763.04908
49763.156
49763.28819
49763.44482
49763.62206
49763.81254
49764.00594
49764.19092
49764.3576
49764.49919
49764.61241
49764.69694
49764.75466
49764.78881
49764.80308
49764.80261
49764.78967
49764.76667
49764.73844
49764.70674
49764.67321
49764.63879
49764.6044
49764.57064
49764.53781
49764.50607
49764.47545
49764.44583
49764.417
49764.38871
49764.36065
49764.33247
49764.30381
49764.27432
49764.24366
49764.21153
49764.17759
49764.14155
49764.1034
49764.06263
49764.01901
49763.97226
49763.92188
49763.86791
49763.81021
49763.74865
49763.68325
49763.61408
49763.54142
49763.46574
49763.38783
49763.30883
49763.2304
49763.15473
49763.08471
49763.02386
49762.97637
49762.94683
49762.93984
49762.95947
49763.00842
49763.08705
49763.19278
49763.32073
49763.46542
49763.62343
49763.79374
49763.97506
49764.15823
49764.32176
49764.44774
49764.53407
49764.58614
49764.61745
49764.62341
49764.6208
49764.61528
49764.60431
49764.59185
49764.5798
49764.56925
49764.56076
49764.55459
49764.55073
49764.54902
49764.54918
49764.55081
49764.5535
49764.55689
49764.56064
49764.56445
49764.56809
49764.57138
49764.5742
49764.57644
49764.57805
49764.579
49764.57929
49764.57872
49764.57763
49764.5761
49764.57397
49764.57143
49764.56858
49764.56542
49764.562
49764.55841
49764.55472
49764.55097
49764.54721
49764.5435
49764.53991
49764.53646
49764.53318
49764.53012
49764.52725
49764.5246
49764.5222
49764.52004
49764.51811
49764.51646
49764.51505
49764.51391
49762.86513
49762.86035
49762.85366
49762.84511
49762.8347
49762.82269
49762.80944
49762.79544
49762.78134
49762.76806
49762.75683
49762.74928
49762.74753
49762.75427
49762.77284
49762.80721
49762.8619
49762.94164
49763.05087
49763.19268
49763.3675
49763.57145
49763.79517
49764.02407
49764.24166
49764.43414
49764.59293
49764.71475
49764.8005
49764.8538
49764.87971
49764.88366
49764.87131
49764.84673
49764.81367
49764.77627
49764.73654
49764.6962
49764.6561
49764.61713
49764.57981
49764.54432
49764.51073
49764.47895
49764.44883
49764.42007
49764.39234
49764.36526
49764.33838
49764.31126
49764.28341
49764.25442
49764.22389
49764.19145
49764.15676
49764.11947
49764.07922
49764.03589
49763.98982
49763.93867
49763.88345
49763.82386
49763.75959
49763.69053
49763.61659
49763.53787
49763.45467
49763.3676
49763.2777
49763.18659
49763.09665
49763.01112
49762.93421
49762.87116
49762.828
49762.81104
49762.82617
49762.87766
49762.96627
49763.08792
49763.23473
49763.39834
49763.57555
49763.76954
49763.9849
49764.21395
49764.4142
49764.55438
49764.63656
49764.67686
49764.69547
49764.68364
49764.66709
49764.64641
49764.6241
49764.60317
49764.58483
49764.5698
49764.55832
49764.55032
49764.54552
49764.54355
49764.54396
49764.54621
49764.54976
49764.5541
49764.55881
49764.56356
49764.56803
49764.57204
49764.57545
49764.57816
49764.58011
49764.58126
49764.58162
49764.58123
49764.58
49764.57804
49764.57573
49764.57289
49764.56971
49764.56621
49764.56244
49764.55848
49764.55441
49764.5503
49764.5462
49764.54217
49764.53827
49764.53455
49764.53103
49764.52774
49764.52467
49764.52185
49764.51931
49764.51705
49764.51506
49764.51336
49764.51194
49764.51081
49762.86328
49762.85852
49762.85105
49762.8407
49762.82751
49762.81172
49762.7936
49762.77352
49762.75206
49762.73007
49762.70873
49762.6897
49762.67524
49762.66838
49762.67301
49762.69406
49762.73747
49762.80998
49762.91854
49763.0691
49763.26449
49763.50167
49763.76903
49764.04551
49764.30599
49764.53074
49764.70918
49764.83888
49764.92302
49764.96801
49764.98151
49764.97113
49764.94382
49764.9054
49764.86043
49764.81258
49764.76404
49764.71645
49764.67045
49764.62682
49764.586
49764.54796
49764.51264
49764.47987
49764.44941
49764.42092
49764.394
49764.36819
49764.34299
49764.31783
49764.29215
49764.26536
49764.23697
49764.20653
49764.17363
49764.1378
49764.09852
49764.05677
49764.0103
49763.95927
49763.90323
49763.84207
49763.77536
49763.70285
49763.62423
49763.53935
49763.44827
49763.35133
49763.24931
49763.14371
49763.03693
49762.93254
49762.83549
49762.75228
49762.69076
49762.65965
49762.6675
49762.72121
49762.82269
49762.96511
49763.13441
49763.31647
49763.50913
49763.72315
49763.97762
49764.2794
49764.53401
49764.68857
49764.75688
49764.77549
49764.76753
49764.74188
49764.70552
49764.66684
49764.63279
49764.60364
49764.57973
49764.56113
49764.54763
49764.53879
49764.53407
49764.53281
49764.53437
49764.53807
49764.54321
49764.54916
49764.55542
49764.56157
49764.56729
49764.57233
49764.57657
49764.57993
49764.58233
49764.58378
49764.58427
49764.58386
49764.5826
49764.58063
49764.57783
49764.57467
49764.57113
49764.56726
49764.56306
49764.55867
49764.55417
49764.54964
49764.54515
49764.54075
49764.53651
49764.53247
49764.52867
49764.52513
49764.52183
49764.51881
49764.51611
49764.51374
49764.51168
49764.50994
49764.5085
49764.5074
49762.86458
49762.85994
49762.85174
49762.83964
49762.82366
49762.80398
49762.78074
49762.7542
49762.72478
49762.69318
49762.66044
49762.62812
49762.59852
49762.57484
49762.56145
49762.56419
49762.59059
49762.64982
49762.75234
49762.90856
49763.12584
49763.40392
49763.72941
49764.07119
49764.38908
49764.65407
49764.85405
49764.9892
49765.06693
49765.09795
49765.09358
49765.06414
49765.01815
49764.96327
49764.90473
49764.84551
49764.78779
49764.73289
49764.68108
49764.63306
49764.58905
49764.54872
49764.5119
49764.47831
49764.44765
49764.41958
49764.39363
49764.36932
49764.34608
49764.32327
49764.30021
49764.27619
49764.25055
49764.22272
49764.19221
49764.15852
49764.1212
49764.08012
49764.03443
49763.98451
49763.92794
49763.86565
49763.79698
49763.72146
49763.63852
49763.54773
49763.44877
49763.34157
49763.22653
49763.10477
49762.97853
49762.85154
49762.72947
49762.6202
49762.53398
49762.48275
49762.47896
49762.53398
49762.65296
49762.82447
49763.02112
49763.21917
49763.41369
49763.63252
49763.92437
49764.34468
49764.68088
49764.8514
49764.8904
49764.87367
49764.83662
49764.78802
49764.7304
49764.67452
49764.62989
49764.59373
49764.56535
49764.54415
49764.52945
49764.52051
49764.51655
49764.51674
49764.5202
49764.52608
49764.53353
49764.54178
49764.55018
49764.55826
49764.56566
49764.5721
49764.57747
49764.58167
49764.5847
49764.58655
49764.58726
49764.5869
49764.58554
49764.58335
49764.58051
49764.57691
49764.57289
49764.56857
49764.56386
49764.55899
49764.554
49764.54899
49764.54405
49764.53923
49764.5346
49764.5302
49764.52608
49764.52224
49764.51869
49764.51546
49764.51258
49764.51007
49764.50793
49764.50615
49764.50471
49764.50363
49762.86992
49762.86554
49762.85673
49762.84298
49762.8243
49762.80077
49762.77237
49762.73919
49762.70142
49762.65953
49762.61429
49762.56704
49762.51988
49762.47595
49762.43988
49762.41822
49762.41998
49762.4571
49762.54448
49762.69927
49762.93692
49763.26388
49763.66798
49764.10278
49764.49896
49764.81353
49765.03514
49765.17033
49765.23382
49765.24283
49765.21357
49765.15953
49765.09094
49765.01716
49764.94378
49764.8728
49764.80609
49764.74437
49764.68747
49764.63568
49764.58907
49764.54699
49764.50907
49764.4749
49764.44416
49764.41652
49764.39158
49764.36884
49764.3477
49764.32749
49764.30742
49764.28666
49764.26437
49764.2398
49764.21233
49764.18139
49764.14646
49764.107
49764.06358
49764.01397
49763.95796
49763.89527
49763.82539
49763.74764
49763.66116
49763.56515
49763.4588
49763.34152
49763.21307
49763.07395
49762.92585
49762.77231
49762.61945
49762.47665
49762.35706
49762.27702
49762.25439
49762.30761
49762.45065
49762.66705
49762.8993
49763.10299
49763.2751
49763.4722
49763.79005
49764.42774
49764.91806
49765.08146
49765.04318
49764.9634
49764.89759
49764.82229
49764.74516
49764.67649
49764.6235
49764.5815
49764.54907
49764.52518
49764.50893
49764.49945
49764.4959
49764.49732
49764.50268
49764.51093
49764.52103
49764.53201
49764.54306
49764.55355
49764.56305
49764.57128
49764.57807
49764.58338
49764.5872
49764.58958
49764.5906
49764.59035
49764.58895
49764.58655
49764.58336
49764.57949
49764.575
49764.56991
49764.56476
49764.5594
49764.55387
49764.54833
49764.54288
49764.53759
49764.53252
49764.52771
49764.52322
49764.51903
49764.51519
49764.51174
49764.50868
49764.50602
49764.50377
49764.50194
49764.50052
49764.49947
49762.88021
49762.87625
49762.86701
49762.85183
49762.83069
49762.80352
49762.77015
49762.73041
49762.68424
49762.63174
49762.57332
49762.50986
49762.44303
49762.37559
49762.31194
49762.25884
49762.22635
49762.22899
49762.28674
49762.4261
49762.67645
49763.05814
49763.57003
49764.14251
49764.64807
49765.023
49765.26178
49765.38623
49765.42328
49765.39931
49765.33644
49765.25169
49765.15679
49765.06232
49764.97367
49764.8915
49764.81666
49764.74946
49764.68923
49764.63467
49764.58632
49764.54349
49764.5051
49764.47071
49764.44001
49764.41276
49764.38866
49764.36732
49764.34821
49764.33062
49764.31374
49764.29661
49764.27819
49764.25754
49764.23382
49764.20634
49764.17455
49764.1379
49764.09619
49764.04824
49763.99403
49763.93164
49763.86152
49763.78264
49763.69385
49763.5939
49763.48141
49763.35504
49763.2137
49763.05686
49762.88517
49762.70131
49762.5112
49762.3254
49762.16052
49762.03906
49761.98608
49762.02991
49762.20769
49762.51027
49762.78609
49762.97723
49763.07394
49763.16907
49763.15185
49764.45123
49765.54602
49765.53018
49765.2489
49765.10157
49764.98379
49764.87094
49764.77262
49764.69524
49764.63378
49764.58439
49764.54555
49764.5163
49764.49582
49764.48335
49764.47808
49764.47901
49764.48499
49764.49476
49764.50706
49764.52065
49764.53445
49764.54761
49764.55956
49764.56989
49764.57841
49764.58506
49764.58985
49764.59289
49764.59429
49764.59419
49764.59275
49764.59014
49764.58656
49764.58219
49764.57713
49764.57169
49764.56586
49764.5598
49764.55374
49764.54764
49764.5416
49764.53579
49764.53024
49764.52499
49764.52004
49764.51546
49764.51132
49764.50762
49764.50436
49764.50154
49764.49918
49764.4973
49764.49587
49764.49487
49762.89637
49762.893
49762.8836
49762.8673
49762.84407
49762.8137
49762.77581
49762.72997
49762.67578
49762.61291
49762.54124
49762.46102
49762.37316
49762.2796
49762.18387
49762.09203
49762.01405
49761.9659
49761.97201
49762.0704
49762.31332
49762.74509
49763.40512
49764.19379
49764.85692
49765.29628
49765.54424
49765.63906
49765.63111
49765.55971
49765.45339
49765.33175
49765.20769
49765.09192
49764.98897
49764.89755
49764.81696
49764.74685
49764.68521
49764.62994
49764.5811
49764.53921
49764.50131
49764.46718
49764.43672
49764.40978
49764.38622
49764.36587
49764.34838
49764.33317
49764.3194
49764.30603
49764.29186
49764.27568
49764.25639
49764.23311
49764.20516
49764.17194
49764.133
49764.08819
49764.03592
49763.97505
49763.90605
49763.82758
49763.73823
49763.63632
49763.51984
49763.38657
49763.23422
49763.06081
49762.86523
49762.64826
49762.4143
49762.17385
49761.94706
49761.76528
49761.66399
49761.68169
49761.90409
49762.37948
49762.71986
49762.89068
49762.87093
49762.49505
49760.80149
49764.12544
49766.2132
49765.82667
49765.34903
49765.18449
49765.06202
49764.93386
49764.83182
49764.75241
49764.68182
49764.62101
49764.57068
49764.53084
49764.50123
49764.48137
49764.47054
49764.46776
49764.47174
49764.48103
49764.49407
49764.50934
49764.52541
49764.54109
49764.55552
49764.56813
49764.5786
49764.58679
49764.59274
49764.59654
49764.59838
49764.59846
49764.59697
49764.59412
49764.59015
49764.58527
49764.57967
49764.57354
49764.56703
49764.56036
49764.55354
49764.54674
49764.54015
49764.5338
49764.52771
49764.52191
49764.51648
49764.51152
49764.50705
49764.50307
49764.49958
49764.4966
49764.49413
49764.49217
49764.49073
49764.48978
49762.91922
49762.91664
49762.90739
49762.89041
49762.86566
49762.83276
49762.79114
49762.74009
49762.67883
49762.60653
49762.52243
49762.42598
49762.31703
49762.19618
49762.06534
49761.92855
49761.79362
49761.67516
49761.59838
49761.61069
49761.79876
49762.23901
49763.10587
49764.26474
49765.1552
49765.66165
49765.8794
49765.92125
49765.84675
49765.71056
49765.55026
49765.3869
49765.23259
49765.09702
49764.98277
49764.88596
49764.8036
49764.73441
49764.67411
49764.62191
49764.574
49764.53507
49764.49906
49764.46592
49764.43599
49764.4093
49764.38593
49764.36598
49764.34944
49764.33597
49764.3249
49764.31514
49764.30535
49764.29402
49764.27976
49764.26138
49764.23805
49764.20911
49764.17408
49764.13288
49764.08368
49764.02564
49763.95937
49763.88322
49763.79563
49763.69452