/*--------------------------------*- C++ -*----------------------------------*\
| =========                 |                                                 |
| \\      /  F ield         | OpenFOAM: The Open Source CFD Toolbox           |
|  \\    /   O peration     | Version:  2412                                  |
|   \\  /    A nd           | Website:  www.openfoam.com                      |
|    \\/     M anipulation  |                                                 |
\*---------------------------------------------------------------------------*/
FoamFile
{
    version     2.0;
    format      ascii;
    arch        "LSB;label=32;scalar=64";
    class       volScalarField;
    location    "0.1";
    object      rho;
}
// * * * * * * * * * * * * * * * * * * * * * * * * * * * * * * * * * * * * * //

dimensions      [1 -3 0 0 0 0 0];

internalField   nonuniform List<scalar> 
12008
(
2.20094155
2.200850041
2.200666756
2.200389677
2.200016327
2.199543455
2.198967147
2.198283013
2.197486412
2.196572705
2.195537534
2.194377106
2.193088501
2.191669966
2.190121209
2.188443686
2.186640849
2.184718367
2.182684297
2.180549208
2.178326255
2.176031196
2.173682364
2.171300583
2.168909049
2.166533153
2.164200264
2.161939452
2.159781147
2.15775671
2.15589791
2.154236339
2.152802729
2.151626026
2.150732476
2.150144603
2.149880105
2.149949133
2.150355246
2.151110289
2.152199307
2.153605336
2.155304088
2.157264443
2.159449375
2.161817227
2.16432324
2.166921194
2.169565067
2.172210573
2.174816483
2.177345653
2.179765695
2.182049306
2.184174275
2.18612321
2.187883057
2.189444456
2.190801016
2.19194857
2.192884451
2.193606834
2.19411418
2.194404353
2.194477468
2.194331736
2.193964185
2.193371933
2.192552244
2.191502963
2.190223107
2.188713577
2.186977971
2.185023439
2.182861513
2.180508819
2.177987603
2.175325956
2.172557694
2.169721844
2.166861735
2.164023747
2.161255807
2.158605753
2.156119693
2.153840499
2.151806526
2.150050618
2.148599415
2.147472967
2.146684601
2.146243964
2.146145644
2.146385549
2.146955919
2.147843329
2.149030459
2.150496622
2.152218229
2.154169219
2.156321451
2.158645077
2.161108911
2.163680827
2.1663282
2.169018399
2.171719345
2.174400112
2.177031553
2.179586912
2.182042397
2.184377652
2.186576112
2.188625205
2.190516394
2.192245065
2.193810258
2.195214298
2.196462325
2.197561779
2.198521871
2.199353063
2.20006658
2.200673988
2.201186823
2.201616293
2.201973053
2.202267035
2.20250734
2.202702175
2.202858831
2.202983694
2.203082276
2.203159268
2.203218589
2.20326346
2.203296453
2.203319555
2.20333421
2.203341346
2.200874813
2.20078083
2.200592501
2.200307877
2.19992452
2.199439187
2.198847949
2.198146381
2.197329801
2.196393529
2.195333175
2.194144927
2.192825858
2.191374228
2.189789789
2.188074061
2.186230591
2.184265168
2.182185994
2.180003808
2.177731946
2.175386362
2.172985591
2.170550664
2.168104991
2.165674194
2.163285901
2.160969496
2.1587558
2.156676688
2.154764607
2.153051946
2.151570263
2.150349538
2.149417188
2.148797047
2.148508305
2.148561562
2.148955655
2.149715904
2.150820655
2.152253479
2.153989841
2.15599781
2.1582391
2.160670445
2.163245244
2.16591534
2.168632796
2.171351549
2.174028815
2.176626161
2.17911021
2.18145293
2.18363161
2.185628541
2.18743047
2.189027902
2.19041433
2.191585443
2.192538376
2.193271041
2.193781556
2.194066344
2.194126813
2.19396004
2.193562245
2.192930075
2.192060369
2.190950666
2.189599843
2.188008895
2.18618181
2.184126479
2.181855565
2.179387241
2.176745693
2.173961299
2.171070415
2.168114729
2.165140198
2.162195638
2.159331075
2.156596002
2.15403768
2.151699641
2.149620456
2.147832828
2.146363
2.145230444
2.144447754
2.144026233
2.143954254
2.144229905
2.144844905
2.145785036
2.147032194
2.148564906
2.150358806
2.152387064
2.154620792
2.157029416
2.159581047
2.162242876
2.164981609
2.167763954
2.170557162
2.173329625
2.176051499
2.178695327
2.18123662
2.183654355
2.185931355
2.188054512
2.190014856
2.191807453
2.193431153
2.194888213
2.196183822
2.197325577
2.19832293
2.19918665
2.199928319
2.200559886
2.201093284
2.201540116
2.201911421
2.202217492
2.202467765
2.202670755
2.202834028
2.202964214
2.203067039
2.203147373
2.203209293
2.203256143
2.2032906
2.203314732
2.203330057
2.203337618
2.200740634
2.200641571
2.200443035
2.200143104
2.199739353
2.199228493
2.198606487
2.197868755
2.197010434
2.196026656
2.19491285
2.193665049
2.19228021
2.190756541
2.189093808
2.187293641
2.185359801
2.183298407
2.181118116
2.178830238
2.176448797
2.173990527
2.171474819
2.168923617
2.166361272
2.163814369
2.161311515
2.158883091
2.156560963
2.154378116
2.1523682
2.150564938
2.149001365
2.147708977
2.146716837
2.146050517
2.145730933
2.14576977
2.146159397
2.14694225
2.148089043
2.149583313
2.15139974
2.153504825
2.155858012
2.158413213
2.161120646
2.163928819
2.166786526
2.169644675
2.172457832
2.17518537
2.177792183
2.180248964
2.182532092
2.184623221
2.186508627
2.188178422
2.189625694
2.190845655
2.191834848
2.192590447
2.193109682
2.193386221
2.193423894
2.19321684
2.192760103
2.192049325
2.191080509
2.189850618
2.188358333
2.186604949
2.184595366
2.182339102
2.179851239
2.177153181
2.174273114
2.171246062
2.168113459
2.164922232
2.161723418
2.158570438
2.155517176
2.152616062
2.149916311
2.147462484
2.145293415
2.14344151
2.14193237
2.14078468
2.140010404
2.139623736
2.139600741
2.139946035
2.140649605
2.141695895
2.143065272
2.144734566
2.146677581
2.148865579
2.151267729
2.153851537
2.156583266
2.159428368
2.162351936
2.165319192
2.168296017
2.171249524
2.17414866
2.176964816
2.179672411
2.182249395
2.184677652
2.186943261
2.189036585
2.1909522
2.19268866
2.194248125
2.195635881
2.196859798
2.197929752
2.198857061
2.199653946
2.200333051
2.200907036
2.201388239
2.201788413
2.202118538
2.202388692
2.202607981
2.202784504
2.202925366
2.203036711
2.203123767
2.203190916
2.203241754
2.203279162
2.203305361
2.203321978
2.20333019
2.200536116
2.200429161
2.200214742
2.199890935
2.199455275
2.198904321
2.198233776
2.197438723
2.196513909
2.195454062
2.194254225
2.19291009
2.19141836
2.189777102
2.1879861
2.186047194
2.183964585
2.181745081
2.179398293
2.176936749
2.17437593
2.171734235
2.169032873
2.166295704
2.163549032
2.160821381
2.158143243
2.155546814
2.153065704
2.150734599
2.148588831
2.146663825
2.144994353
2.143613664
2.142552566
2.141838375
2.141493593
2.141530109
2.141934681
2.142766501
2.143989247
2.145585544
2.147528801
2.149783245
2.152305173
2.155044654
2.1579476
2.16095804
2.164020389
2.167081521
2.170092483
2.173009751
2.17579596
2.178420126
2.180857397
2.183088509
2.185098996
2.186878264
2.188418626
2.189714374
2.190760934
2.191554133
2.192089568
2.192357161
2.192363814
2.192098735
2.191555671
2.190728742
2.189612769
2.188203993
2.186500997
2.184505763
2.182224825
2.179670424
2.176861527
2.173824599
2.17059395
2.167211571
2.163726356
2.160192744
2.15666886
2.153214348
2.149888105
2.146746193
2.143840095
2.141215466
2.138911368
2.136959924
2.135386222
2.134208355
2.133441384
2.133097326
2.133141191
2.133586253
2.134420368
2.135626151
2.137181589
2.13906064
2.141233853
2.143668973
2.146331535
2.149185442
2.152193515
2.155318044
2.158521301
2.161766061
2.165016117
2.168236803
2.171395536
2.174462365
2.177410506
2.180216826
2.182862241
2.18533199
2.187615748
2.189707589
2.191605772
2.193312385
2.194832871
2.19617547
2.197350623
2.198370374
2.199247794
2.199996469
2.200630048
2.201161875
2.201604701
2.201970467
2.202270158
2.202513721
2.202710024
2.202866859
2.202990974
2.203088124
2.203163137
2.203219984
2.203261845
2.203291179
2.203309787
2.203318975
2.200257394
2.200139383
2.199902697
2.199545371
2.199064814
2.198457291
2.197718048
2.196841588
2.195822008
2.19465337
2.19333008
2.191847286
2.190201293
2.18838998
2.186413218
2.184273273
2.181975156
2.179526915
2.17693984
2.174228563
2.17141105
2.168508493
2.165545104
2.162547848
2.159546127
2.156571456
2.153657136
2.150837943
2.148149834
2.145629627
2.14331463
2.141242143
2.139448769
2.137969508
2.136836848
2.136079754
2.135722183
2.135773394
2.136218275
2.137131229
2.13846849
2.140211851
2.142332888
2.14479289
2.147544157
2.150531886
2.153696539
2.156976465
2.16031054
2.163640556
2.166913172
2.170081281
2.173104771
2.175950648
2.17859262
2.181010328
2.183188365
2.185115171
2.186781933
2.188181558
2.189307786
2.190154466
2.190714075
2.190973728
2.190941241
2.190600749
2.189943999
2.188963202
2.187651781
2.186005293
2.18402255
2.181706883
2.179067486
2.17612071
2.172891155
2.169412373
2.165727016
2.161886288
2.157948643
2.153977812
2.150040317
2.146202785
2.142529381
2.139079665
2.13590708
2.133058125
2.130572119
2.128481342
2.126811277
2.125580726
2.124813464
2.124510137
2.124634088
2.125205359
2.12621061
2.12763004
2.12943811
2.131604305
2.134093971
2.136869181
2.139889608
2.143113371
2.146497853
2.150000444
2.153579193
2.157193386
2.160804035
2.164374326
2.167870039
2.171259955
2.174516278
2.177615034
2.180536412
2.183265029
2.185790052
2.188105188
2.190208501
2.19210209
2.193791628
2.195285808
2.196595738
2.19773431
2.198715598
2.199554304
2.200265265
2.200863045
2.201361615
2.201774103
2.202112629
2.202388198
2.202610648
2.202788649
2.202929726
2.203040311
2.203125812
2.203190685
2.203238507
2.203272048
2.20329334
2.203303837
2.199899314
2.199766659
2.199500467
2.199098679
2.198558478
2.197875655
2.197044755
2.196059413
2.194912769
2.193597912
2.192108345
2.190438469
2.188584086
2.186542914
2.184315104
2.181903722
2.179315178
2.176559553
2.173650808
2.170606837
2.167449373
2.164203745
2.160898513
2.157565021
2.154236919
2.150949689
2.147740211
2.144646399
2.141706896
2.138960802
2.136447403
2.13420578
2.132274255
2.130689467
2.129485504
2.12869299
2.128337459
2.12842096
2.128932973
2.129960575
2.131452381
2.133389769
2.135742157
2.138467385
2.141512957
2.144818113
2.148316534
2.151939428
2.155618655
2.159289566
2.162893284
2.166378255
2.169701021
2.172826236
2.175726025
2.178378891
2.180768431
2.182881991
2.184709369
2.186241678
2.187470407
2.188386702
2.188978472
2.189231352
2.189150752
2.188716432
2.187917305
2.186743351
2.185186562
2.183242096
2.180909641
2.178194915
2.1751112
2.171680756
2.167935905
2.163919558
2.159684976
2.155294616
2.150818083
2.146329329
2.141903457
2.137613562
2.133528064
2.129708864
2.126210451
2.123079874
2.120357272
2.118076576
2.116265977
2.114947822
2.114161345
2.113888951
2.114099636
2.114821238
2.11603928
2.11773055
2.119864211
2.122402946
2.125304213
2.128521551
2.132005902
2.135706898
2.139574059
2.143557845
2.147610511
2.151686759
2.155744199
2.159743657
2.163649404
2.16742934
2.171055182
2.174502685
2.177751864
2.180787194
2.183597726
2.186177094
2.188523379
2.190638829
2.192529443
2.194204439
2.195675651
2.196956896
2.198063342
2.199010916
2.199815779
2.20049387
2.201060547
2.201530307
2.201916585
2.202231625
2.202486413
2.202690662
2.202852827
2.202980154
2.203078754
2.203153672
2.203208968
2.203247793
2.203272459
2.203284605
2.199455419
2.199304028
2.19900008
2.198541357
2.197924692
2.197145195
2.196196427
2.195070826
2.193760226
2.19225642
2.190551742
2.188639683
2.186515523
2.184176984
2.181624875
2.178863687
2.175902099
2.172753333
2.169435334
2.16597072
2.162386524
2.158713733
2.154986672
2.151242307
2.14751954
2.143858549
2.140300245
2.136885852
2.133656629
2.130653696
2.12791791
2.125489695
2.123408709
2.121712983
2.120438148
2.119616711
2.119276383
2.119406309
2.120008654
2.121180137
2.122863245
2.125038993
2.127674968
2.130725455
2.134132599
2.137828618
2.141738905
2.145785688
2.149891828
2.153984309
2.157997028
2.161872659
2.165563492
2.169031309
2.172246468
2.175186389
2.177833794
2.180174989
2.182198294
2.183892733
2.185247033
2.186248934
2.186880555
2.187126504
2.186987607
2.186439125
2.185466644
2.184057732
2.182203147
2.179898261
2.177144699
2.173952066
2.170339652
2.166337883
2.161989252
2.157348448
2.152481444
2.147463429
2.142375711
2.137301939
2.132324226
2.127519821
2.122958875
2.118703564
2.114808462
2.11132175
2.108286648
2.105742502
2.103725007
2.102265168
2.101425961
2.101166919
2.101467317
2.102365745
2.103845611
2.10587812
2.108424178
2.11143623
2.114860188
2.118637384
2.122706497
2.12700542
2.131472972
2.13605035
2.140682259
2.145317663
2.149910198
2.154418289
2.158805087
2.163038304
2.167090071
2.170936839
2.174559384
2.177942855
2.181076851
2.183955437
2.186577065
2.188944362
2.191063786
2.19294515
2.194601057
2.196046273
2.197297095
2.198370727
2.199284722
2.20005649
2.200702894
2.201239927
2.201682481
2.202044186
2.202337323
2.202572788
2.202760099
2.202907443
2.203021739
2.20310872
2.203173009
2.203218202
2.203246941
2.203261077
2.198917921
2.198743121
2.198391983
2.197862066
2.197149714
2.196249123
2.195152556
2.193850894
2.192334305
2.190592968
2.188617836
2.186401419
2.183938611
2.181227521
2.178270275
2.175073746
2.171650122
2.168017264
2.164198776
2.160223772
2.156126337
2.151944726
2.147720402
2.143496999
2.139319338
2.135232595
2.13128165
2.127510681
2.123962961
2.12068085
2.117705908
2.115079027
2.112840461
2.111029182
2.109682292
2.108834598
2.108517193
2.108700641
2.109406885
2.110741889
2.112642998
2.115092085
2.118055968
2.12148601
2.125318994
2.129479371
2.133882741
2.138440209
2.143063079
2.147667285
2.152176994
2.156527023
2.160663886
2.164545563
2.168140222
2.171424203
2.174379612
2.176991973
2.179248248
2.181135253
2.18263857
2.183741903
2.184420391
2.184657856
2.184448709
2.183763416
2.182583897
2.180895359
2.17868784
2.175957961
2.172710835
2.168962005
2.164739222
2.16008376
2.155050934
2.149709472
2.14413949
2.138429089
2.132669911
2.126952374
2.121361491
2.115974162
2.110858452
2.106074773
2.101678346
2.097721951
2.094257936
2.091338889
2.089016497
2.087338235
2.086400852
2.086135778
2.086534443
2.087649661
2.089459391
2.091924966
2.094994338
2.098604989
2.102686749
2.107164481
2.11196067
2.116997914
2.122201212
2.127499917
2.132829196
2.13813096
2.143354231
2.148455038
2.153395967
2.158145534
2.162677534
2.166970499
2.171007328
2.174775095
2.178264986
2.181472305
2.184396454
2.187040822
2.189412547
2.191522149
2.193383032
2.195010913
2.196423201
2.197638374
2.198675392
2.199553172
2.200290141
2.20090387
2.201410808
2.201826082
2.202163383
2.202434907
2.202651351
2.202821946
2.202954523
2.203055583
2.203130391
2.203183044
2.203216561
2.203233034
2.198277736
2.198074188
2.197665083
2.197047681
2.196217701
2.195168179
2.193889756
2.192371395
2.190601257
2.188567657
2.186260054
2.183670092
2.180792657
2.17762694
2.17417743
2.170454762
2.166476325
2.162266539
2.157856718
2.15328451
2.148592924
2.143829057
2.139042648
2.134284633
2.129605887
2.125056231
2.120683793
2.11653469
2.112653015
2.109081066
2.105859771
2.1030292
2.100629053
2.09869851
2.097275946
2.096398926
2.09610367
2.096338271
2.097147355
2.098649772
2.100778549
2.103518667
2.106838347
2.110687799
2.114999493
2.119690168
2.124664566
2.129820521
2.13505479
2.14026878
2.145373413
2.150292485
2.154964234
2.159341138
2.163388247
2.167080521
2.17039965
2.173330797
2.175859897
2.177971663
2.179648324
2.180869042
2.181600805
2.181826948
2.181533758
2.180686651
2.179263753
2.177248263
2.174630432
2.171409674
2.167596727
2.163215701
2.158305739
2.15292189
2.147134771
2.141028594
2.134697432
2.12823997
2.121753572
2.115328933
2.109046689
2.102976978
2.097182053
2.091721024
2.086655049
2.082051231
2.077983716
2.074532028
2.071776494
2.06979059
2.068716179
2.06843997
2.068971849
2.070376738
2.072619797
2.075645388
2.079382127
2.083747086
2.088649438
2.093993676
2.099682621
2.105620391
2.111715228
2.117881985
2.124044066
2.130134653
2.136097155
2.141884931
2.147460443
2.15279404
2.157862662
2.162648645
2.167138804
2.171323842
2.175198036
2.178759151
2.182008457
2.184950735
2.187594203
2.189950292
2.192033293
2.193859874
2.195448519
2.196818934
2.197991448
2.198986469
2.199823996
2.200523216
2.201102187
2.201577608
2.201964664
2.202276944
2.202526416
2.202723448
2.202876864
2.202994016
2.203080868
2.203142081
2.203181086
2.203200247
2.197524604
2.197286237
2.196806901
2.196083502
2.195111
2.193881041
2.192382345
2.190601636
2.18852481
2.18613819
2.183429839
2.180390911
2.177017019
2.173309554
2.169276878
2.16493527
2.160309488
2.155432853
2.150346748
2.145099547
2.139745035
2.134340475
2.128944567
2.123615552
2.118409703
2.113380318
2.108577239
2.104046807
2.09983216
2.095973799
2.092510355
2.089479504
2.086918923
2.084866961
2.08336279
2.082446978
2.0821628
2.082436029
2.083329241
2.0849827
2.087325814
2.090349881
2.094027951
2.098312314
2.103133712
2.108402658
2.11401307
2.119847969
2.125786566
2.131711698
2.137516484
2.143109247
2.148416106
2.153381137
2.157964426
2.16213864
2.165884877
2.169188313
2.172034362
2.174405954
2.176281972
2.177636712
2.178427929
2.178638936
2.178246299
2.177210323
2.175505497
2.17311378
2.170027094
2.166249794
2.161801
2.156716553
2.151050212
2.144873558
2.138274068
2.131350969
2.124208982
2.116950813
2.109670058
2.102446657
2.095346681
2.088427083
2.081744281
2.075363858
2.069368098
2.063858863
2.058954025
2.054779859
2.051460145
2.04910303
2.04790165
2.047652321
2.048413211
2.050238945
2.053070245
2.056825337
2.061406917
2.066707352
2.072612531
2.079004846
2.085766
2.092780006
2.099936368
2.107133143
2.114279535
2.12129772
2.128123682
2.134707014
2.141009787
2.147004767
2.152673324
2.158003396
2.162987783
2.167622915
2.171908129
2.175845356
2.179439091
2.182696509
2.185627573
2.188245031
2.190564254
2.192602921
2.194380572
2.195918074
2.197237057
2.19835936
2.199306519
2.200099322
2.200757456
2.201299225
2.201741363
2.202098917
2.202385197
2.202611781
2.202788557
2.202923791
2.203024211
2.203095083
2.203140291
2.203162492
2.196647336
2.196367298
2.195803908
2.194953674
2.193810711
2.192365096
2.190603389
2.188509867
2.186068055
2.183262385
2.180079912
2.176512065
2.172556362
2.16821802
2.163511315
2.158460553
2.153100468
2.147475943
2.141640951
2.13565677
2.12958957
2.123507665
2.117478742
2.111567496
2.105833978
2.100332807
2.095113123
2.090219063
2.085690556
2.081564296
2.077874858
2.074655938
2.071941714
2.069768442
2.068175211
2.067205342
2.066910674
2.06720111
2.068142266
2.069908478
2.072426525
2.075697847
2.079704736
2.08440628
2.089735954
2.095601561
2.101888127
2.108463774
2.115187962
2.121920904
2.12853263
2.134910239
2.140962299
2.146619964
2.151835095
2.156576108
2.160822598
2.164559689
2.167772769
2.17044348
2.172547595
2.174054441
2.174911651
2.175103216
2.174594581
2.173341199
2.171314494
2.168496481
2.164882836
2.160485671
2.155335843
2.149484453
2.143002983
2.135981381
2.128523437
2.120739291
2.11273578
2.104606691
2.096426009
2.088247409
2.080111679
2.072061068
2.06415668
2.056493175
2.049205555
2.04246572
2.036466494
2.031402674
2.02744973
2.024767489
2.023554409
2.02345379
2.024640311
2.027096451
2.030726434
2.035414618
2.041034533
2.047453984
2.054537685
2.062148687
2.070149932
2.078406646
2.086789555
2.095178531
2.103466117
2.111560418
2.119386886
2.126888721
2.13402586
2.140772813
2.147115791
2.153049648
2.158575113
2.163696624
2.168420892
2.172756155
2.17671198
2.180299391
2.183531146
2.186421998
2.188988802
2.191250434
2.193227532
2.194942089
2.196416959
2.197675327
2.198740193
2.199633903
2.200377744
2.200991628
2.201493861
2.201900985
2.202227703
2.202486856
2.202689452
2.202844728
2.20296022
2.203041844
2.203093968
2.203119562
2.195634195
2.195304857
2.194642037
2.193641852
2.192297556
2.190597574
2.188526212
2.186065267
2.183196038
2.179901488
2.176168461
2.171989895
2.167366919
2.162310736
2.156844077
2.151002067
2.144832295
2.138393971
2.13175611
2.124994821
2.11818989
2.111421003
2.104764137
2.098288662
2.092055722
2.086118018
2.080520628
2.075302372
2.070497319
2.066136261
2.062248098
2.058861275
2.056005378
2.05371339
2.052023123
2.050979722
2.050643865
2.050924086
2.05186343
2.05368341
2.05631219
2.059764274
2.064035794
2.069098418
2.074894623
2.08133539
2.088301396
2.095648213
2.103215196
2.110836864
2.118354853
2.125628374
2.132541434
2.139005866
2.144960162
2.150364909
2.155196139
2.159438004
2.163075908
2.166090744
2.168455603
2.170135002
2.171065854
2.171233796
2.170592128
2.169092147
2.166703331
2.163409698
2.15921347
2.154138002
2.148229711
2.141558502
2.13421589
2.126309927
2.117956306
2.109266009
2.100331632
2.091216603
2.081952687
2.072549903
2.063018749
2.053399347
2.043788801
2.034357258
2.025345954
2.017048013
2.009765675
2.003774643
1.999287399
1.996559975
1.995570505
1.99589949
1.997821626
2.001189686
2.005861498
2.011686903
2.018515175
2.026197619
2.034586956
2.043535656
2.052895179
2.062517094
2.072255998
2.0819737
2.091543977
2.100857103
2.109823354
2.118374845
2.126465373
2.13406839
2.141173578
2.147782737
2.153905711
2.15955692
2.164752829
2.169510429
2.173846606
2.177778148
2.181322117
2.184496344
2.187319858
2.189813128
2.191998068
2.19389783
2.195536445
2.196938363
2.198127963
2.199129065
2.199964508
2.200655784
2.201222759
2.201683486
2.202054085
2.202348696
2.20257949
2.202756713
2.202888751
2.202982204
2.20304195
2.203071286
2.194473436
2.194086448
2.193307394
2.19213209
2.190553024
2.188557051
2.18612633
2.183240423
2.179878895
2.176024083
2.171663905
2.166794568
2.161423049
2.155569151
2.149266932
2.142565275
2.13552743
2.128229434
2.120757406
2.113203808
2.105662903
2.098225766
2.090975546
2.083983835
2.07730917
2.070997929
2.065086707
2.059605125
2.054578359
2.050029161
2.04597944
2.042451641
2.039470301
2.037064467
2.035269604
2.03413117
2.033716958
2.033957363
2.034839979
2.036634158
2.039291862
2.042834085
2.047274992
2.05260499
2.058783098
2.065731558
2.073334159
2.081439498
2.089869484
2.098432119
2.106936495
2.115207213
2.123095606
2.130485938
2.137296023
2.143472934
2.148985305
2.153814139
2.157943951
2.161355084
2.164018468
2.165894225
2.166908356
2.167049358
2.166257981
2.164482613
2.16169258
2.157876608
2.153047004
2.147242445
2.140528936
2.132998174
2.124762188
2.115943167
2.106658098
2.096999914
2.087020024
2.076720318
2.066063166
2.055002854
2.043532059
2.031728853
2.019789687
2.008037094
1.996894604
1.986839288
1.978304611
1.971634861
1.967048985
1.96480815
1.964369799
1.965650542
1.968691559
1.973273127
1.979205385
1.986315605
1.994445156
2.003445896
2.013174568
2.023487074
2.03423489
2.045264546
2.056419952
2.067546975
2.078499535
2.08914624
2.099376404
2.109104336
2.118271092
2.126843483
2.134810689
2.142179326
2.148967959
2.155201996
2.160909601
2.166118937
2.170856706
2.175147751
2.179015367
2.18248197
2.185569829
2.188301684
2.190701097
2.192792549
2.194601275
2.19615294
2.197473219
2.198587324
2.199519567
2.200292963
2.200928914
2.201446966
2.201864661
2.202197459
2.202458717
2.202659719
2.202809732
2.202916062
2.202984118
2.203017542
2.193154002
2.19270041
2.191787159
2.190409953
2.188560782
2.186225231
2.183383711
2.180014157
2.176095317
2.171610247
2.166549741
2.160915539
2.154723088
2.148003619
2.140805315
2.133193365
2.125248803
2.117066148
2.108749918
2.100410064
2.092156393
2.084092082
2.076307144
2.068873143
2.061841552
2.055246589
2.049110407
2.043448343
2.038272938
2.03359657
2.029433016
2.025798491
2.022712729
2.020200989
2.018295997
2.017041942
2.016509505
2.016681193
2.017455682
2.019128555
2.021726607
2.025254204
2.029747277
2.035220613
2.041657489
2.049000776
2.057147342
2.06594786
2.075213293
2.084727873
2.094266611
2.103614069
2.112580672
2.121013561
2.12880047
2.135866847
2.142167801
2.147677188
2.15237634
2.156244312
2.159250278
2.161350558
2.162460529
2.162572991
2.161616599
2.159538727
2.156311146
2.151930815
2.146424388
2.139850356
2.132298117
2.123882796
2.11473428
2.104979194
2.094716287
2.083989634
2.072769722
2.06095695
2.048419491
2.03506309
2.020910049
2.006157696
1.991202246
1.976624789
1.963123796
1.951426942
1.942069962
1.935383607
1.931657734
1.930475523
1.931204302
1.933991718
1.938528863
1.944556288
1.951866382
1.960292604
1.969694385
1.979946468
1.99092841
2.002515269
2.014571618
2.026949447
2.03948962
2.052026444
2.064394817
2.076439009
2.088021687
2.099031568
2.109388286
2.119043665
2.127979415
2.136202004
2.143735968
2.150616978
2.156885761
2.162583555
2.167749295
2.172418375
2.176622592
2.180390838
2.183750083
2.186726357
2.189345521
2.191633729
2.19361757
2.195323948
2.196779782
2.198011599
2.199045103
2.199904764
2.200613461
2.201192206
2.201659951
2.202033469
2.202327317
2.202553833
2.20272318
2.202843394
2.202920427
2.202958271
2.19166634
2.191136794
2.19007064
2.188463811
2.186308274
2.183588932
2.180285214
2.176374458
2.171836015
2.166655501
2.160828854
2.154365926
2.147293311
2.139656153
2.131518725
2.122963716
2.114090338
2.105011493
2.095850196
2.086735078
2.077794391
2.069147576
2.06089513
2.053108718
2.045827879
2.03906631
2.032822615
2.027090186
2.021863521
2.017141485
2.012928411
2.009234305
2.006074929
2.003472786
2.00145853
2.00007433
1.999387277
1.999459242
2.000077387
2.001549563
2.003998009
2.007401592
2.01181955
2.017294303
2.023839434
2.031427452
2.039979515
2.049360246
2.059380191
2.069807007
2.080384145
2.090853609
2.100978062
2.110557763
2.119439459
2.127516545
2.134721845
2.14101563
2.146371975
2.150766439
2.154166188
2.15652441
2.157746661
2.157831615
2.156697422
2.154293043
2.150596182
2.145616382
2.139399518
2.13202852
2.123619204
2.114309481
2.104239805
2.093523635
2.082210214
2.070249303
2.057477204
2.043648886
2.028529783
2.012025448
1.994289657
1.97576474
1.95716921
1.939466305
1.923738568
1.911047424
1.901870577
1.896564408
1.894709027
1.895141517
1.89793959
1.902641012
1.908892205
1.91643168
1.925078238
1.934706885
1.945221281
1.956538564
1.968576311
1.98124149
1.994423189
2.007989215
2.021786292
2.035643868
2.049381493
2.062819151
2.075789147
2.088147589
2.099783401
2.11062326
2.120631774
2.129807313
2.13817477
2.145776956
2.152666263
2.158897802
2.164524618
2.169595035
2.1741518
2.178232476
2.181870537
2.185096674
2.187939997
2.190428924
2.192591714
2.194456638
2.196051873
2.197405212
2.198543679
2.199493122
2.200277837
2.20092025
2.20144069
2.201857233
2.202185626
2.202439267
2.202629226
2.202764274
2.202850916
2.202893496
2.190003346
2.189388371
2.188150436
2.186286224
2.183788405
2.180642122
2.176826995
2.172321274
2.167106807
2.161174035
2.154526552
2.14718481
2.139188616
2.130598179
2.121493656
2.111973455
2.102151897
2.092156938
2.082128397
2.07221595
2.06257467
2.053353994
2.044679641
2.036630594
2.029229184
2.022453987
2.016263306
2.010614955
2.005476198
2.000827388
1.996661404
1.992982094
1.989802515
1.987144265
1.985037845
1.983524755
1.982666992
1.982577756
1.983033223
1.984254208
1.986465892
1.989642159
1.993861854
1.999194154
2.005685895
2.013346187
2.022131177
2.031932686
2.042574593
2.053819732
2.0653875
2.076979271
2.088306201
2.099113314
2.109195148
2.11840091
2.126629844
2.133819431
2.139930016
2.144929657
2.148781949
2.151437431
2.15279313
2.15285517
2.151534141
2.148783915
2.144592526
2.138987227
2.132038411
2.123857829
2.114589391
2.10438996
2.093397307
2.081684336
2.069205503
2.055754431
2.040968034
2.024417623
2.005795464
1.985124855
1.962859769
1.93983098
1.917165823
1.896335954
1.878982397
1.866715728
1.859728454
1.857365978
1.857887752
1.86122879
1.86649891
1.873258199
1.881195088
1.890112665
1.899900707
1.910501246
1.921876856
1.933996249
1.946821986
1.9602998
1.974351113
1.98886844
2.003713736
2.018720428
2.033699778
2.048451507
2.062777649
2.076497597
2.089461777
2.101561449
2.112732984
2.122956228
2.132247941
2.140652172
2.148229751
2.155048748
2.161177124
2.166677996
2.171607377
2.176013846
2.179939457
2.183421237
2.186492791
2.189185657
2.191530285
2.193556585
2.195294098
2.196771887
2.198018248
2.199060339
2.199923803
2.200632425
2.201207865
2.201669469
2.202034161
2.20231639
2.202528129
2.202678887
2.202775724
2.202823337
2.188161351
2.187451679
2.186023635
2.183875349
2.181001187
2.177387817
2.173016648
2.167868796
2.161930875
2.155200606
2.147691554
2.139436427
2.130488559
2.120921428
2.110826562
2.100310753
2.08949411
2.078510668
2.067512501
2.056675726
2.046202804
2.036308836
2.027186043
2.018945028
2.011583603
2.005013505
1.99911745
1.993791257
1.988958249
1.984572182
1.980611666
1.977074823
1.973973982
1.971332717
1.969184554
1.967573515
1.966561366
1.966263936
1.966570123
1.96752017
1.96941667
1.972287216
1.976206525
1.981267828
1.987551811
1.995108397
2.0039373
2.013970242
2.02505975
2.036979201
2.049436458
2.062099577
2.074629164
2.086709867
2.098074146
2.108514411
2.117883107
2.126083
2.133051402
2.138742717
2.143113633
2.146111835
2.147627524
2.147675663
2.146163733
2.143054532
2.138351676
2.132105876
2.124417513
2.115430959
2.105318074
2.094247121
2.08233329
2.069570903
2.05575939
2.040457916
2.02303049
2.00284533
1.979616627
1.953705524
1.926099945
1.898104995
1.871158708
1.847429654
1.829511643
1.820741566
1.818090962
1.819400924
1.823991968
1.830608815
1.838349255
1.846987221
1.856360058
1.86638365
1.877038442
1.88833669
1.90029809
1.912940415
1.926269938
1.940272412
1.954905844
1.970094514
1.985724872
2.001644778
2.017667436
2.033580693
2.049161297
2.064192436
2.078481804
2.091876943
2.104275052
2.115625722
2.125926772
2.135214848
2.143553344
2.151020183
2.157697448
2.163663913
2.168990699
2.173739632
2.17796354
2.1817077
2.185011724
2.187911372
2.190440026
2.192629675
2.194511449
2.19611576
2.197472169
2.198609097
2.19955347
2.200330366
2.200962727
2.201471127
2.201873636
2.202185736
2.202420294
2.20258755
2.202695111
2.202748024
2.186141082
2.185328062
2.183692955
2.181236219
2.177955174
2.173839641
2.1688748
2.163046905
2.156349758
2.14879056
2.140394218
2.131205356
2.12128767
2.110720777
2.099595664
2.088010886
2.076072742
2.063902972
2.051656343
2.039545598
2.027863411
2.01697022
2.007224135
1.998829676
1.991745274
1.985737441
1.980536117
1.975926373
1.97175868
1.967948175
1.964457382
1.96128157
1.958436151
1.955951671
1.953869544
1.952240977
1.951130482
1.950644477
1.950816855
1.951513438
1.953044273
1.955569451
1.959117875
1.963808091
1.969753563
1.977045869
1.985733363
1.995797869
2.007135272
2.019546635
2.032744768
2.046377073
2.060060195
2.073418077
2.086114439
2.09787349
2.10848693
2.117808719
2.125741025
2.132215871
2.137177719
2.140569912
2.14227779
2.142326146
2.140625333
2.137151656
2.131930291
2.125041559
2.1166212