/*--------------------------------*- C++ -*----------------------------------*\
| =========                 |                                                 |
| \\      /  F ield         | OpenFOAM: The Open Source CFD Toolbox           |
|  \\    /   O peration     | Version:  2412                                  |
|   \\  /    A nd           | Website:  www.openfoam.com                      |
|    \\/     M anipulation  |                                                 |
\*---------------------------------------------------------------------------*/
FoamFile
{
    version     2.0;
    format      ascii;
    arch        "LSB;label=32;scalar=64";
    class       surfaceVectorField;
    location    "0.1";
    object      rhoUf;
}
// * * * * * * * * * * * * * * * * * * * * * * * * * * * * * * * * * * * * * //

dimensions      [1 -2 -1 0 0 0 0];

internalField   nonuniform List<vector> 
23538
(
(-0.0001291832081 3.147247073e-05 0)
(-6.302476505e-05 8.546500931e-05 0)
(-0.0003300015363 4.195049406e-05 0)
(-0.0003064195611 0.0001574056512 0)
(-0.0005380107032 4.298051789e-05 0)
(-0.0005850805043 0.0001651832912 0)
(-0.0007235448565 3.972202804e-05 0)
(-0.0008379439314 0.0001436253925 0)
(-0.0008772798652 3.535638994e-05 0)
(-0.001038502846 0.0001130305636 0)
(-0.0009966877938 3.069738021e-05 0)
(-0.001181538385 8.017697912e-05 0)
(-0.001080413071 2.576691895e-05 0)
(-0.001264958963 4.622277102e-05 0)
(-0.001126360355 2.032172458e-05 0)
(-0.001286242338 1.041424559e-05 0)
(-0.001131439419 1.410968586e-05 0)
(-0.001241416965 -2.826919387e-05 0)
(-0.001091833921 6.941337282e-06 0)
(-0.001125266577 -7.057906621e-05 0)
(-0.001003366623 -1.297591449e-06 0)
(-0.0009318988998 -0.0001169046017 0)
(-0.0008618426949 -1.064947434e-05 0)
(-0.0006552675206 -0.0001672947359 0)
(-0.0006633430531 -2.109681078e-05 0)
(-0.0002896184152 -0.0002215102604 0)
(-0.0004045066562 -3.255598017e-05 0)
(0.000170047012 -0.0002790299196 0)
(-8.283978966e-05 -4.486108201e-05 0)
(0.0007275136339 -0.0003390195543 0)
(0.0003029395439 -5.775834879e-05 0)
(0.001384858086 -0.0004003064991 0)
(0.0007525568652 -7.090293415e-05 0)
(0.002141934339 -0.0004613666053 0)
(0.001263848299 -8.385809343e-05 0)
(0.002995861945 -0.0005203387595 0)
(0.001832477202 -9.610937647e-05 0)
(0.003940562472 -0.0005750719393 0)
(0.002451749743 -0.0001070967538 0)
(0.004966423538 -0.0006232220049 0)
(0.003112570452 -0.0001162507545 0)
(0.006060146024 -0.0006623913039 0)
(0.003803561372 -0.0001230350546 0)
(0.007204808886 -0.0006902894309 0)
(0.004511354285 -0.0001269980818 0)
(0.008380194885 -0.0007049094433 0)
(0.005221057464 -0.0001278149845 0)
(0.009563387595 -0.0007047031201 0)
(0.005916856572 -0.0001253174968 0)
(0.01072957979 -0.0006887120814 0)
(0.00658269141 -0.0001195156511 0)
(0.01185304452 -0.0006566540972 0)
(0.007202961931 -0.0001105953595 0)
(0.01290819286 -0.0006089489223 0)
(0.007763178659 -9.88963097e-05 0)
(0.01387059595 -0.0005466711118 0)
(0.008250497735 -8.488399805e-05 0)
(0.01471788491 -0.0004714392644 0)
(0.008654158212 -6.895826311e-05 0)
(0.01543053842 -0.0003853166323 0)
(0.008965286199 -5.126342299e-05 0)
(0.01599205762 -0.000290191647 0)
(0.0091763686 -3.232657127e-05 0)
(0.01638957048 -0.0001874272039 0)
(0.009283481695 -1.334221116e-05 0)
(0.0166145373 -8.065003944e-05 0)
(0.009287377272 4.725040528e-06 0)
(0.01666206936 2.541312309e-05 0)
(0.009192012526 2.137242974e-05 0)
(0.01653509751 0.0001274878826 0)
(0.009003889707 3.622980456e-05 0)
(0.01624105532 0.0002229490904 0)
(0.008731523999 4.903988911e-05 0)
(0.01579139086 0.0003096879258 0)
(0.008384876928 5.964487863e-05 0)
(0.01520069314 0.0003861259797 0)
(0.00797515985 6.800254282e-05 0)
(0.01448616313 0.0004511223134 0)
(0.007513773307 7.415380364e-05 0)
(0.01366671314 0.0005041363182 0)
(0.007012392411 7.819783014e-05 0)
(0.01276186357 0.0005449101535 0)
(0.006482424995 8.030178675e-05 0)
(0.0117917248 0.0005736649418 0)
(0.005934741922 8.066478295e-05 0)
(0.01077603369 0.0005909154142 0)
(0.005379464732 7.950823223e-05 0)
(0.009733755827 0.000597412954 0)
(0.004825836896 7.704978636e-05 0)
(0.008682715665 0.0005940605054 0)
(0.004282187685 7.348135996e-05 0)
(0.007639362379 0.0005818228087 0)
(0.003755956448 6.895948882e-05 0)
(0.006618660336 0.0005616517473 0)
(0.003253767575 6.361128009e-05 0)
(0.005634077405 0.0005344439797 0)
(0.002781477735 5.754269068e-05 0)
(0.004697592302 0.0005010526588 0)
(0.002344175516 5.082856018e-05 0)
(0.003819723927 0.000462334904 0)
(0.001946142213 4.361418062e-05 0)
(0.003009624898 0.0004191905075 0)
(0.001590438019 3.620590537e-05 0)
(0.002274455082 0.0003729235358 0)
(0.0012787024 2.877440726e-05 0)
(0.001618940993 0.0003250390935 0)
(0.001012102563 2.118428262e-05 0)
(0.001046285509 0.0002760869759 0)
(0.0007919985144 1.334762023e-05 0)
(0.0005581905664 0.0002259429697 0)
(0.0006192490807 5.355036486e-06 0)
(0.0001561050776 0.0001751784126 0)
(0.0004939709389 -2.661657705e-06 0)
(-0.000159842145 0.0001246013408 0)
(0.0004154487036 -1.054409134e-05 0)
(-0.0003910078901 7.510474346e-05 0)
(0.0003820850991 -1.810847012e-05 0)
(-0.0005403028093 2.763061214e-05 0)
(0.0003913951755 -2.516141832e-05 0)
(-0.0006121972493 -1.687229099e-05 0)
(0.0004400431551 -3.151558849e-05 0)
(-0.0006126420009 -5.749759667e-05 0)
(0.0005239352521 -3.699372563e-05 0)
(-0.0005489198921 -9.342821807e-05 0)
(0.0006383318863 -4.142698714e-05 0)
(-0.0004294339097 -0.0001239664849 0)
(0.0007779371562 -4.465662122e-05 0)
(-0.0002634973939 -0.0001485464706 0)
(0.0009371184078 -4.653117898e-05 0)
(-6.107036896e-05 -0.0001667550889 0)
(0.001110016131 -4.691873235e-05 0)
(0.0001676794595 -0.0001782884306 0)
(0.001290615283 -4.572118838e-05 0)
(0.0004125195088 -0.0001829939157 0)
(0.001472886166 -4.285688573e-05 0)
(0.0006632767178 -0.0001808418103 0)
(0.001650832127 -3.824531212e-05 0)
(0.0009100830134 -0.0001718560844 0)
(0.001818496449 -3.180988465e-05 0)
(0.001143397413 -0.0001560968644 0)
(0.001969963842 -2.349818496e-05 0)
(0.001354095585 -0.0001336402291 0)
(0.002099385532 -1.329843082e-05 0)
(0.001533557971 -0.0001046217441 0)
(0.002201041606 -1.243092239e-06 0)
(0.001673601161 -6.925976374e-05 0)
(0.002269416482 1.257184663e-05 0)
(0.001766590733 -2.787867355e-05 0)
(0.002299345926 2.796427976e-05 0)
(0.001805566163 1.902263573e-05 0)
(0.00228623558 4.465659737e-05 0)
(0.001784446437 7.070906144e-05 0)
(0.002226334691 6.227115503e-05 0)
(0.001698318723 0.0001261548042 0)
(0.002117059398 8.033008179e-05 0)
(0.00154380998 0.0001840038236 0)
(0.001957345507 9.826309437e-05 0)
(0.001319517872 0.0002425526206 0)
(0.001747991114 0.0001154273553 0)
(0.001026465394 0.0002997639467 0)
(0.001491961653 0.000131147043 0)
(0.0006685380363 0.0003533232214 0)
(0.001194585118 0.0001447588413 0)
(0.0002528264222 0.0004007414809 0)
(0.0008636253306 0.0001556434947 0)
(-0.0002101681062 0.000439499491 0)
(0.0005091899802 0.0001632686063 0)
(-0.0007065124413 0.0004671967358 0)
(0.0001434361021 0.0001672532132 0)
(-0.001219103805 0.0004817658278 0)
(-0.0002199876283 0.0001674059897 0)
(-0.00172828065 0.0004817247444 0)
(-0.0005667086003 0.0001637348232 0)
(-0.0022127575 0.0004663847499 0)
(-0.0008825348994 0.0001564641111 0)
(-0.002650872914 0.0004359804823 0)
(-0.001154397719 0.0001460285066 0)
(-0.003022041959 0.0003917016257 0)
(-0.001371197427 0.0001330145742 0)
(-0.003308114181 0.0003355939628 0)
(-0.00152452486 0.0001181361666 0)
(-0.003494500524 0.0002704266956 0)
(-0.0016094634 0.0001022571339 0)
(-0.003571435252 0.0001996811467 0)
(-0.001624870682 8.631136549e-05 0)
(-0.003534915745 0.0001273805023 0)
(-0.001573605684 7.112036319e-05 0)
(-0.003387103358 5.745814825e-05 0)
(-0.001461762746 5.730301468e-05 0)
(-0.003135617969 -6.771062696e-06 0)
(-0.001298028689 4.530085568e-05 0)
(-0.002792906172 -6.26550148e-05 0)
(-0.001093176068 3.53999854e-05 0)
(-0.002374983406 -0.0001080512876 0)
(-0.0008595275472 2.773988456e-05 0)
(-0.001900990957 -0.0001413638107 0)
(-0.0006102409151 2.232199699e-05 0)
(-0.001392396807 -0.0001617137687 0)
(-0.0003585477309 1.901672271e-05 0)
(-0.0008716423953 -0.0001690000211 0)
(-0.0001169560302 1.757796571e-05 0)
(-0.0003608769267 -0.0001639187278 0)
(0.000103481676 1.765751119e-05 0)
(0.0001193326799 -0.0001479085657 0)
(0.0002937765496 1.882946274e-05 0)
(0.0005511782034 -0.000123022596 0)
(0.0004474191494 2.064272782e-05 0)
(0.0009205452225 -9.17345319e-05 0)
(0.0005605423943 2.266849442e-05 0)
(0.001217589262 -5.668343789e-05 0)
(0.0006318481897 2.45196518e-05 0)
(0.001436987292 -2.043553798e-05 0)
(0.0006623243835 2.588193624e-05 0)
(0.001577706452 1.472214233e-05 0)
(0.0006548872952 2.654063637e-05 0)
(0.001642537808 4.687401012e-05 0)
(0.0006139034991 2.63666679e-05 0)
(0.001637395699 7.457878517e-05 0)
(0.0005447433112 2.531252676e-05 0)
(0.001570516911 9.685521174e-05 0)
(0.0004533117454 2.340916379e-05 0)
(0.001451677185 0.0001131955006 0)
(0.0003456392348 2.07245541e-05 0)
(0.00129143817 0.0001235100141 0)
(0.0002275794215 1.735262749e-05 0)
(0.001100525796 0.000128016027 0)
(0.0001045658741 1.343628697e-05 0)
(0.0008892925549 0.0001271818898 0)
(-1.859871679e-05 9.140645537e-06 0)
(0.000667273687 0.0001216843464 0)
(-0.0001378470719 4.605764025e-06 0)
(0.0004429354642 0.0001123062808 0)
(-0.0002498624211 -4.325489153e-08 0)
(0.0002235276318 9.984096996e-05 0)
(-0.0003520773778 -4.676413705e-06 0)
(1.497754195e-05 8.507681686e-05 0)
(-0.0004426533201 -9.182384871e-06 0)
(-0.0001781012628 6.877433251e-05 0)
(-0.0005204027408 -1.348384326e-05 0)
(-0.0003523159571 5.160710891e-05 0)
(-0.000584691986 -1.752397481e-05 0)
(-0.0005053840786 3.414542038e-05 0)
(-0.0006353485574 -2.126034576e-05 0)
(-0.0006359971902 1.685967025e-05 0)
(-0.0006725668175 -2.466722134e-05 0)
(-0.0007436493623 1.153510216e-07 0)
(-0.0006968101473 -2.773143008e-05 0)
(-0.0008284647909 -1.58260945e-05 0)
(-0.0007087260625 -3.045559878e-05 0)
(-0.0008910435757 -3.078988529e-05 0)
(-0.0007090661349 -3.286523951e-05 0)
(-0.0009323037579 -4.468820376e-05 0)
(-0.0006986099549 -3.499204165e-05 0)
(-0.0009533433332 -5.75158576e-05 0)
(-0.0006781138792 -3.685877566e-05 0)
(-0.0009553441394 -6.931228698e-05 0)
(-0.0006482964251 -3.849545007e-05 0)
(-0.0009394980546 -8.014533566e-05 0)
(-0.0006097868877 -3.995259883e-05 0)
(-0.0009069184676 -9.012294531e-05 0)
(-0.0005630835733 -4.128435592e-05 0)
(-0.0008585834818 -9.94017264e-05 0)
(-0.000508525845 -4.254130941e-05 0)
(-0.0007953022779 -0.000108161237 0)
(-0.0004462770783 -4.378292886e-05 0)
(-0.000717660845 -0.0001166011758 0)
(-0.0003763645856 -4.50512312e-05 0)
(-0.0006260120794 -0.0001248753788 0)
(-0.0002989620146 -4.627425349e-05 0)
(-0.000520697153 -0.0001328551497 0)
(-0.0002151918875 -4.707713346e-05 0)
(-0.000402768394 -0.00013960731 0)
(-0.0001288378967 -4.6531431e-05 0)
(-0.0002756407882 -0.0001424831889 0)
(-4.917977585e-05 -4.260460497e-05 0)
(-0.0001476544713 -0.0001359982266 0)
(4.830221899e-06 -2.970658829e-05 0)
(-3.887397563e-05 -0.0001104854704 0)
(1.247927168e-05 -5.17115837e-05 0)
(-0.0002239597942 0.0002312203613 0)
(-8.022159976e-05 0.0002660176195 0)
(-0.0005596789228 0.0002992533399 0)
(-0.0004018845744 0.0004500586853 0)
(-0.0008864841659 0.000282329742 0)
(-0.0007499147948 0.0004495377485 0)
(-0.001153679714 0.0002309795772 0)
(-0.001044719804 0.0003693104552 0)
(-0.001343559379 0.0001691131228 0)
(-0.001250165052 0.0002626548901 0)
(-0.001450649791 0.0001039894064 0)
(-0.001358154532 0.0001485625971 0)
(-0.001471745621 3.600426343e-05 0)
(-0.001364836143 3.043653315e-05 0)
(-0.001402450613 -3.642808364e-05 0)
(-0.001265888795 -9.368804111e-05 0)
(-0.001236651546 -0.0001148869915 0)
(-0.001055130267 -0.0002265713889 0)
(-0.0009670510604 -0.0002003417773 0)
(-0.0007247334217 -0.0003701789847 0)
(-0.0005858610326 -0.0002931132814 0)
(-0.0002659180627 -0.0005254167977 0)
(-8.546239353e-05 -0.0003929627718 0)
(0.0003301909515 -0.000692204569 0)
(0.0005409875412 -0.0004991172796 0)
(0.001071887955 -0.0008695621195 0)
(0.001298927605 -0.000610244561 0)
(0.001966146685 -0.001055605389 0)
(0.002191753138 -0.0007244146945 0)
(0.003017903795 -0.001247501635 0)
(0.003220142751 -0.0008390676168 0)
(0.004229283712 -0.001441402753 0)
(0.004381370863 -0.0009510205308 0)
(0.00559879604 -0.001632420598 0)
(0.005668670508 -0.00105653211 0)
(0.007120544951 -0.001814688355 0)
(0.007070716891 -0.001151437444 0)
(0.008783523277 -0.001981525182 0)
(0.008571309535 -0.001231363273 0)
(0.01057110364 -0.002125728705 0)
(0.01014932196 -0.001292003728 0)
(0.01246081207 -0.002239986216 0)
(0.01177898592 -0.001329427339 0)
(0.01442444582 -0.002317357793 0)
(0.01343050775 -0.001340390868 0)
(0.01642859466 -0.002351793774 0)
(0.0150710092 -0.001322616612 0)
(0.01843557144 -0.002338629372 0)
(0.01666572069 -0.001274986867 0)
(0.02040467468 -0.002274977167 0)
(0.01817933268 -0.001197638513 0)
(0.02229370078 -0.002159962223 0)
(0.01957737033 -0.001091942888 0)
(0.02406057908 -0.001994790975 0)
(0.02082749075 -0.0009603588959 0)
(0.02566496421 -0.001782617489 0)
(0.02190057091 -0.0008061975057 0)
(0.02706964519 -0.001528235468 0)
(0.02277146621 -0.0006332241832 0)
(0.02824184636 -0.001237652497 0)
(0.02342014125 -0.0004450098803 0)
(0.02915389323 -0.0009178456778 0)
(0.0238316348 -0.0002461956209 0)
(0.02978312069 -0.0005752656597 0)
(0.02399647263 -4.385921993e-05 0)
(0.03011748013 -0.0002190422147 0)
(0.02391280986 0.0001546753315 0)
(0.0301461994 0.0001384176632 0)
(0.02358675716 0.0003436329773 0)
(0.02987141259 0.0004858157037 0)
(0.02303073198 0.0005184482548 0)
(0.02930323286 0.0008141317833 0)
(0.02226235051 0.0006755333958 0)
(0.02845867882 0.001115953891 0)
(0.02130327097 0.0008122152734 0)
(0.02736052277 0.001385437861 0)
(0.02017873055 0.0009267871554 0)
(0.02603644183 0.001618188569 0)
(0.01891547504 0.001018382666 0)
(0.02451797607 0.001811521391 0)
(0.01754164047 0.001086867998 0)
(0.02283827422 0.001963892385 0)
(0.01608559935 0.001132830332 0)
(0.02103236688 0.002075218481 0)
(0.01457518329 0.001157381073 0)
(0.01913537988 0.002146512989 0)
(0.01303705775 0.001162016516 0)
(0.0171817804 0.002179692717 0)
(0.01149624063 0.001148458128 0)
(0.01520459271 0.00217732542 0)
(0.009975803768 0.001118501135 0)
(0.01323480844 0.002142379707 0)
(0.008496714585 0.001073903101 0)
(0.01130099141 0.002077988944 0)
(0.00707779113 0.001016351179 0)
(0.009429060499 0.001987290468 0)
(0.00573569792 0.0009475154001 0)
(0.007642153499 0.001873392651 0)
(0.004484882878 0.0008691537128 0)
(0.005960561203 0.001739477524 0)
(0.003337411387 0.0007834208625 0)
(0.0044019724 0.001588929993 0)
(0.002302548939 0.000692901337 0)
(0.00298065703 0.001425955904 0)
(0.001386245481 0.0005995144025 0)
(0.001706701513 0.001255460898 0)
(0.0005918291755 0.0005038759419 0)
(0.0005878819977 0.001080699048 0)
(-7.84084601e-05 0.0004065990907 0)
(-0.0003741891126 0.0009026566476 0)
(-0.0006238161693 0.0003090279409 0)
(-0.00117813055 0.0007236115579 0)
(-0.001045754283 0.0002127890591 0)
(-0.001825160262 0.0005464440524 0)
(-0.001347768225 0.0001196287367 0)
(-0.002319271726 0.0003742940027 0)
(-0.001535631396 3.13317855e-05 0)
(-0.002667286105 0.0002103856628 0)
(-0.001617266819 -5.036285963e-05 0)
(-0.002878801835 5.787544545e-05 0)
(-0.001602575897 -0.0001238508059 0)
(-0.002965994307 -8.029855217e-05 0)
(-0.001503161686 -0.0001877360399 0)
(-0.002943294673 -0.0002015584222 0)
(-0.001331982033 -0.0002408720448 0)
(-0.002826952146 -0.000303796307 0)
(-0.001103041809 -0.0002823997271 0)
(-0.00263459973 -0.0003854217674 0)
(-0.0008308061075 -0.0003117372791 0)
(-0.002384770767 -0.0004454593387 0)
(-0.0005298268897 -0.0003285539673 0)
(-0.002095969211 -0.0004834299614 0)
(-0.0002145261451 -0.0003327502489 0)
(-0.001786514745 -0.0004993445082 0)
(0.0001010955787 -0.0003243842609 0)
(-0.001474159455 -0.0004935676169 0)
(0.00040362575 -0.0003036076913 0)
(-0.001175664039 -0.0004667201336 0)
(0.0006803781296 -0.0002706410651 0)
(-0.0009066856061 -0.0004196042613 0)
(0.0009194991909 -0.0002257741506 0)
(-0.0006814998263 -0.0003531797714 0)
(0.001110003198 -0.0001693882961 0)
(-0.0005128612011 -0.0002685210353 0)
(0.001241793057 -0.0001020070041 0)
(-0.0004121016866 -0.000166839439 0)
(0.001305771344 -2.438507995e-05 0)
(-0.0003889869075 -4.958859321e-05 0)
(0.001294029871 6.237741991e-05 0)
(-0.0004515844313 8.138812187e-05 0)
(0.001200136984 0.0001567262806 0)
(-0.0006060554404 0.0002237029601 0)
(0.001019532953 0.0002565611646 0)
(-0.0008563620372 0.0003742769891 0)
(0.0007500035924 0.0003591756399 0)
(-0.001203881587 0.0005292161509 0)
(0.0003922189934 0.000461245914 0)
(-0.001646955407 0.0006837549159 0)
(-4.972342014e-05 0.0005588837897 0)
(-0.002180395094 0.0008322705125 0)
(-0.0005678132667 0.0006477662205 0)
(-0.002795000583 0.0009683985161 0)
(-0.00114976254 0.0007233472902 0)
(-0.003477179168 0.001085274433 0)
(-0.001778870156 0.000781131342 0)
(-0.004208730684 0.001175901265 0)
(-0.002434186419 0.0008170094238 0)
(-0.004966872483 0.001233600163 0)
(-0.003091055868 0.0008276808247 0)
(-0.005724634765 0.001252596357 0)
(-0.00372211232 0.0008110922945 0)
(-0.00645172246 0.001228722455 0)
(-0.004298740402 0.0007667764371 0)
(-0.007115833112 0.001160080081 0)
(-0.004792857884 0.0006960037641 0)
(-0.007684426119 0.001047486887 0)
(-0.005178759885 0.0006017197961 0)
(-0.008126820952 0.0008945713086 0)
(-0.005434817279 0.0004883529905 0)
(-0.008416220376 0.0007075166123 0)
(-0.005545008145 0.0003616647507 0)
(-0.008531395828 0.0004947658672 0)
(-0.005500530245 0.0002285631686 0)
(-0.008458619601 0.0002669526812 0)
(-0.005300523166 9.644633459e-05 0)
(-0.008193286752 3.636795026e-05 0)
(-0.004952113758 -2.780597356e-05 0)
(-0.007740716196 -0.0001852291464 0)
(-0.004469300153 -0.000138598551 0)
(-0.007114141308 -0.0003875556063 0)
(-0.003871900076 -0.0002316003907 0)
(-0.006333261298 -0.0005620773816 0)
(-0.003184355429 -0.0003033180809 0)
(-0.005425246848 -0.0007019630821 0)
(-0.002434959445 -0.000351255837 0)
(-0.004422607288 -0.0008017126421 0)
(-0.001654460089 -0.0003743353921 0)
(-0.003361674856 -0.000857944161 0)
(-0.0008742527959 -0.0003730286536 0)
(-0.002280714718 -0.0008698641087 0)
(-0.0001245609785 -0.0003493065168 0)
(-0.001217910182 -0.0008393069372 0)
(0.0005672879677 -0.0003064519903 0)
(-0.0002093174037 -0.0007705826206 0)
(0.00117834885 -0.0002487525509 0)
(0.0007130578159 -0.0006701069762 0)
(0.001691173348 -0.0001810889828 0)
(0.001522892549 -0.0005458437216 0)
(0.002094476854 -0.0001084583198 0)
(0.002200711726 -0.0004065931802 0)
(0.002383216643 -3.550725052e-05 0)
(0.002734558512 -0.0002611629436 0)
(0.002558175303 3.374517305e-05 0)
(0.003120080251 -0.0001176688518 0)
(0.002625194637 9.602102117e-05 0)
(0.003360021914 1.691091245e-05 0)
(0.002594033715 0.0001488882085 0)
(0.003463299276 0.0001372255149 0)
(0.002477351763 0.0001908194652 0)
(0.003443209036 0.000239400555 0)
(0.002289607779 0.0002211474312 0)
(0.003316188616 0.0003211490265 0)
(0.002046057556 0.0002399212585 0)
(0.003100491749 0.0003816113398 0)
(0.001761899369 0.0002477446945 0)
(0.002815076019 0.0004210988029 0)
(0.001451605448 0.0002456583637 0)
(0.002478631037 0.0004408418206 0)
(0.001128402256 0.000235017961 0)
(0.002108731534 0.0004428094967 0)
(0.0008039115584 0.0002173216063 0)
(0.001721449261 0.0004294336024 0)
(0.0004879711498 0.0001940844172 0)
(0.001330883672 0.0004033352368 0)
(0.0001885738074 0.0001667896374 0)
(0.0009489243358 0.0003671855351 0)
(-8.810468596e-05 0.0001368221429 0)
(0.0005852128332 0.0003235968722 0)
(-0.0003375936642 0.0001053972242 0)
(0.0002472133815 0.0002749760346 0)
(-0.0005569442914 7.353853487e-05 0)
(-5.963357046e-05 0.0002234306622 0)
(-0.0007445114252 4.2077067e-05 0)
(-0.0003316984177 0.000170744429 0)
(-0.0008997222284 1.164711626e-05 0)
(-0.0005668937342 0.0001183601611 0)
(-0.00102283567 -1.730513743e-05 0)
(-0.0007643918554 6.736978534e-05 0)
(-0.001114717876 -4.450195244e-05 0)
(-0.0009243466834 1.854433091e-05 0)
(-0.001176644568 -6.981849303e-05 0)
(-0.001047618428 -2.763563073e-05 0)
(-0.00121012614 -9.325358422e-05 0)
(-0.001135529592 -7.09460421e-05 0)
(-0.001216762825 -0.0001148900103 0)
(-0.001189687318 -0.0001113565119 0)
(-0.001198135287 -0.0001348771767 0)
(-0.001211826228 -0.0001489751682 0)
(-0.001155724199 -0.0001534389359 0)
(-0.00120365881 -0.0001840365614 0)
(-0.001090823897 -0.000170868957 0)
(-0.001166795646 -0.0002169001138 0)
(-0.001004481237 -0.0001875016182 0)
(-0.001102660806 -0.0002480235014 0)
(-0.0008974686827 -0.0002036286957 0)
(-0.001012424943 -0.0002778925171 0)
(-0.0007704641544 -0.0002192168176 0)
(-0.0008970259671 -0.0003067800133 0)
(-0.000624665422 -0.0002332187497 0)
(-0.000757516899 -0.0003340537978 0)
(-0.0004633179295 -0.0002423035295 0)
(-0.0005960918717 -0.0003567468719 0)
(-0.0002946543369 -0.0002390628525 0)
(-0.0004183396905 -0.0003672372071 0)
(-0.000136519107 -0.000210155609 0)
(-0.0002365053396 -0.0003504387316 0)
(-2.170506924e-05 -0.0001367482805 0)
(-7.808912835e-05 -0.0002817446268 0)
(9.753215005e-06 -0.0001299259535 0)
(-0.0002409073371 0.0004859556401 0)
(-8.195650655e-05 0.0004641477763 0)
(-0.0005902051236 0.0006019714067 0)
(-0.0004064622823 0.0007569278097 0)
(-0.0009096856093 0.000538291725 0)
(-0.0007389685424 0.0007272694099 0)
(-0.001141807824 0.0004027845544 0)
(-0.0009956981968 0.0005606999202 0)
(-0.001265481428 0.0002438495089 0)
(-0.00113711189 0.0003469483622 0)
(-0.001273154512 7.664381714e-05 0)
(-0.00115325977 0.0001185315832 0)
(-0.001159923004 -9.778697885e-05 0)
(-0.001038553397 -0.0001185266703 0)
(-0.0009197138504 -0.0002825594687 0)
(-0.0007870587044 -0.0003673780077 0)
(-0.000544608628 -0.000480794779 0)
(-0.0003908206963 -0.000632656541 0)
(-2.529689514e-05 -0.0006944073703 0)
(0.0001599711636 -0.0009177463592 0)
(0.0006481043543 -0.000923915412 0)
(0.000876194728 -0.001224160402 0)
(0.001485163495 -0.001168492585 0)
(0.001768801871 -0.001551542233 0)
(0.002494312456 -0.001426045352 0)
(0.00284795219 -0.001897819778 0)
(0.003682041952 -0.001693188723 0)
(0.004122136743 -0.002259214752 0)
(0.005052040552 -0.001965168522 0)
(0.005597259542 -0.002630148909 0)
(0.006604297534 -0.002235803143 0)
(0.007275637962 -0.003003123736 0)
(0.008334180785 -0.002497512941 0)
(0.009154960405 -0.003368683207 0)
(0.01023158136 -0.002741480974 0)
(0.0112272594 -0.00371553204 0)
(0.01228021831 -0.002957975255 0)
(0.01347798856 -0.004030859603 0)
(0.01445721099 -0.003136836861 0)
(0.01588534121 -0.004300892509 0)
(0.01673300785 -0.003268100471 0)
(0.01841993717 -0.004511662978 0)
(0.01907175335 -0.003342690064 0)
(0.02104496185 -0.004649928514 0)
(0.02143211361 -0.003353118508 0)
(0.02371682648 -0.004704144023 0)
(0.02376852779 -0.003294098959 0)
(0.02638636576 -0.00466538304 0)
(0.02603280423 -0.00316298155 0)
(0.02900048057 -0.004528074342 0)
(0.02817592064 -0.002959963261 0)
(0.03150409363 -0.00429045166 0)
(0.03014987736 -0.002688042624 0)
(0.03384226296 -0.003954667929 0)
(0.03190943759 -0.002352726196 0)
(0.03596224967 -0.003526569652 0)
(0.03341365157 -0.00196154726 0)
(0.03781536047 -0.003015163981 0)
(0.03462705485 -0.001523640954 0)
(0.03935849358 -0.002431879525 0)
(0.03552056896 -0.001048835649 0)
(0.04055577273 -0.001790039323 0)
(0.0360729789 -0.0005482479558 0)
(0.04137672068 -0.001103936459 0)
(0.03627032627 -3.63546627e-05 0)
(0.04180437908 -0.0003899672664 0)
(0.03610746987 0.0004704808121 0)
(0.041825143 0.0003306045441 0)
(0.03559014934 0.0009576786474 0)
(0.04143797325 0.001035531487 0)
(0.03473299905 0.001413389375 0)
(0.04065370867 0.00170680328 0)
(0.03355833651 0.001827942425 0)
(0.03949192465 0.00232920186 0)
(0.03209470465 0.002193769967 0)
(0.03798004183 0.00289030759 0)
(0.03037655866 0.002505494928 0)
(0.03615234424 0.003380402457 0)
(0.02844137098 0.002759760749 0)
(0.03404933297 0.003792819813 0)
(0.02632948624 0.002955080924 0)
(0.03171412459 0.004123291493 0)
(0.02408256892 0.003091796247 0)
(0.02919342777 0.004370325856 0)
(0.02174238056 0.003171726388 0)
(0.02653497311 0.004534772114 0)
(0.01934972986 0.003197863271 0)
(0.02378645415 0.004619471658 0)
(0.01694359908 0.003174028857 0)
(0.02099432609 0.004628844191 0)
(0.01456045845 0.003104536205 0)
(0.01820280012 0.004568426201 0)
(0.01223380082 0.002993903338 0)
(0.01545305896 0.004444428889 0)
(0.009993854092 0.002846692672 0)
(0.01278272446 0.004263373483 0)
(0.007867449405 0.002667528393 0)
(0.01022550125 0.004031903222 0)
(0.005877924156 0.002461243493 0)
(0.007810951645 0.003756828825 0)
(0.004044995809 0.002233285848 0)
(0.005564913402 0.003445291642 0)
(0.00238476814 0.001990103407 0)
(0.003508847272 0.003105227276 0)
(0.0009085788563 0.001737896349 0)
(0.001658332288 0.002746415804 0)
(-0.0003783895128 0.001480410124 0)
(2.778340963e-05 0.002378355817 0)
(-0.001474387307 0.001220329482 0)
(-0.001382025763 0.002005535618 0)
(-0.002380123242 0.0009614123696 0)
(-0.002571017988 0.001632759258 0)
(-0.003099473227 0.0007080552965 0)
(-0.003542563075 0.001266127322 0)
(-0.003639696071 0.0004648748528 0)
(-0.004304014164 0.0009122172729 0)
(-0.004011433739 0.0002364673715 0)
(-0.004866687903 0.0005776797121 0)
(-0.004228523754 2.71921423e-05 0)
(-0.005245749459 0.0002689212283 0)
(-0.004307666341 -0.0001590362433 0)
(-0.005459889726 -8.206099226e-06 0)
(-0.004267955034 -0.0003189263892 0)
(-0.005530826591 -0.0002486777723 0)
(-0.004130289653 -0.0004499213942 0)
(-0.005482629354 -0.0004485206825 0)
(-0.003916874203 -0.0005503199204 0)
(-0.005341084888 -0.0006048981714 0)
(-0.003650226442 -0.0006192558521 0)
(-0.005132862831 -0.0007163781173 0)
(-0.003352654669 -0.0006565734805 0)
(-0.004884467021 -0.0007826212971 0)
(-0.003045832078 -0.0006627334778 0)
(-0.004621688953 -0.0008043087434 0)
(-0.002750264021 -0.0006386542442 0)
(-0.00436902362 -0.0007829642609 0)
(-0.002484949044 -0.0005855953849 0)
(-0.004149146386 -0.0007207251901 0)
(-0.002267106743 -0.0005050978141 0)
(-0.003982362117 -0.0006202077302 0)
(-0.002111951358 -0.0003989021559 0)
(-0.003886337441 -0.0004844440075 0)
(-0.002032615439 -0.0002688982851 0)
(-0.003876083458 -0.000316688262 0)
(-0.002040099509 -0.0001172135317 0)
(-0.003963705424 -0.0001204067729 0)
(-0.002143159636 5.361838608e-05 0)
(-0.004158341077 0.0001005405146 0)
(-0.002348145881 0.000240470261 0)
(-0.004466051539 0.0003417248364 0)
(-0.002658785019 0.0004394274163 0)
(-0.00488969671 0.000597937026 0)
(-0.003075887415 0.0006456106486 0)
(-0.005428785125 0.000862979919 0)
(-0.003596980303 0.000853054102 0)
(-0.00607927027 0.001129487245 0)
(-0.004215899271 0.001054671491 0)
(-0.006833305678 0.001388826595 0)
(-0.004922357865 0.001242337262 0)
(-0.007678962253 0.001631122184 0)
(-0.005701576821 0.001407118337 0)
(-0.008599927182 0.001845421069 0)
(-0.006534021882 0.001539669648 0)
(-0.009575277943 0.00202006239 0)
(-0.007395372757 0.001630779973 0)
(-0.01057941142 0.002143251045 0)
(-0.008256796865 0.001672077126 0)
(-0.01158218087 0.002203832527 0)
(-0.009085641579 0.001656898934 0)
(-0.01254936711 0.002192259984 0)
(-0.009846604211 0.001581220079 0)
(-0.01344362578 0.002101774433 0)
(-0.01050340795 0.001444422845 0)
(-0.01422590483 0.001929563846 0)
(-0.01102089304 0.001249690889 0)
(-0.01485731807 0.001677612221 0)
(-0.01136725927 0.001003907384 0)
(-0.01530147777 0.001352948846 0)
(-0.01151615242 0.0007172711 0)
(-0.01552686903 0.0009672352561 0)
(-0.01144859222 0.0004030519655 0)
(-0.01550876379 0.0005363095641 0)
(-0.01115507654 7.744539763e-05 0)
(-0.01523143447 8.01885619e-05 0)
(-0.01063693185 -0.0002425772156 0)
(-0.01469175397 -0.0003776910678 0)
(-0.009905688848 -0.0005421722661 0)
(-0.01389711168 -0.0008156278612 0)
(-0.008980552844 -0.0008085819397 0)
(-0.01286341567 -0.001215541566 0)
(-0.007888680376 -0.001030516681 0)
(-0.01161747196 -0.001560886328 0)
(-0.006665173617 -0.001198820192 0)
(-0.01019489823 -0.001836823737 0)
(-0.005350604169 -0.001307138127 0)
(-0.008638354282 -0.002032318145 0)
(-0.003988839764 -0.001352441993 0)
(-0.006995416213 -0.002140618886 0)
(-0.002624958878 -0.001335318562 0)
(-0.00531651071 -0.002159665301 0)
(-0.00130299061 -0.001259942527 0)
(-0.003652537669 -0.002092283467 0)
(-6.366925878e-05 -0.001133754314 0)
(-0.002052433043 -0.001946033298 0)
(0.001057620461 -0.0009668384943 0)
(-0.0005608006497 -0.001732652126 0)
(0.002032522963 -0.0007710576869 0)
(0.0007842197902 -0.001467117438 0)
(0.002840897774 -0.0005590136214 0)
(0.001952651351 -0.001166435162 0)
(0.003471472301 -0.0003430296661 0)
(0.002923866926 -0.0008482903195 0)
(0.003921923592 -0.0001342545846 0)
(0.003687109097 -0.0005297611609 0)
(0.004198093799 5.826582562e-05 0)
(0.004241129326 -0.0002259971481 0)
(0.004312369535 0.0002277943946 0)
(0.004594140897 5.108722652e-05 0)
(0.004281866885 0.0003697182242 0)
(0.004761610357 0.0002928855385 0)
(0.004126834828 0.0004815541057 0)
(0.00476409965 0.0004939775388 0)
(0.003869239919 0.000562696993 0)
(0.004625208556 0.0006517974499 0)
(0.003531493841 0.000614090493 0)
(0.004370040322 0.0007662326535 0)
(0.003135408571 0.0006378887007 0)
(0.004023885318 0.0008391458982 0)
(0.002701433586 0.0006371106261 0)
(0.003611077246 0.0008739031594 0)
(0.002248086521 0.0006152991952 0)
(0.00315430782 0.0008749103432 0)
(0.001791507524 0.0005762414992 0)
(0.002673963095 0.0008472075382 0)
(0.001345248819 0.0005237492127 0)
(0.002187684325 0.0007960958127 0)
(0.00092024545 0.000461462 0)
(0.001710304992 0.0007268405795 0)
(0.0005249228816 0.0003926793142 0)
(0.00125383232 0.000644388341 0)
(0.0001653991838 0.0003202678367 0)
(0.0008275061095 0.0005531779374 0)
(-0.0001542558258 0.0002466215766 0)
(0.0004380540932 0.0004570597464 0)
(-0.0004317071607 0.0001736413037 0)
(9.00075784e-05 0.0003592174568 0)
(-0.0006660186564 0.000102745808 0)
(-0.0002139546688 0.0002621435168 0)
(-0.0008573290762 3.490911568e-05 0)
(-0.0004726510002 0.0001676782496 0)
(-0.001006553077 -2.929076328e-05 0)
(-0.000686039517 7.707007782e-05 0)
(-0.001115124913 -8.960142215e-05 0)
(-0.0008548883209 -8.953140127e-06 0)
(-0.001184776267 -0.0001460182382 0)
(-0.0009805137287 -9.008017977e-05 0)
(-0.001217360304 -0.0001987339212 0)
(-0.001064574763 -0.0001663187813 0)