/*--------------------------------*- C++ -*----------------------------------*\
| =========                 |                                                 |
| \\      /  F ield         | OpenFOAM: The Open Source CFD Toolbox           |
|  \\    /   O peration     | Version:  2412                                  |
|   \\  /    A nd           | Website:  www.openfoam.com                      |
|    \\/     M anipulation  |                                                 |
\*---------------------------------------------------------------------------*/
FoamFile
{
    version     2.0;
    format      ascii;
    arch        "LSB;label=32;scalar=64";
    class       volVectorField;
    location    "0.1";
    object      U;
}
// * * * * * * * * * * * * * * * * * * * * * * * * * * * * * * * * * * * * * //

dimensions      [0 1 -1 0 0 0 0];

internalField   nonuniform List<vector> 
12008
(
(-2.201406038e-05 1.054320871e-05 0)
(-0.0001022295635 1.805663929e-05 0)
(-0.0001985044464 2.006711497e-05 0)
(-0.0002898602186 1.899663657e-05 0)
(-0.0003674680712 1.711080623e-05 0)
(-0.0004297768563 1.50343594e-05 0)
(-0.0004762426545 1.288151742e-05 0)
(-0.0005061490631 1.055724133e-05 0)
(-0.0005182933516 7.934358449e-06 0)
(-0.0005110499091 4.909342093e-06 0)
(-0.0004825363085 1.411475641e-06 0)
(-0.0004307756429 -2.594873352e-06 0)
(-0.0003538474513 -7.115452934e-06 0)
(-0.0002500010443 -1.213175522e-05 0)
(-0.0001177963625 -1.758950903e-05 0)
(4.374557626e-05 -2.339516779e-05 0)
(0.0002349844635 -2.941392519e-05 0)
(0.0004554983998 -3.546826861e-05 0)
(0.0007039300795 -4.133809417e-05 0)
(0.0009778694501 -4.67729614e-05 0)
(0.001273792985 -5.150870461e-05 0)
(0.001587065716 -5.52835573e-05 0)
(0.001912023547 -5.786096715e-05 0)
(0.002242145778 -5.905437537e-05 0)
(0.002570294259 -5.874159145e-05 0)
(0.002889005505 -5.687880848e-05 0)
(0.003190819728 -5.350774599e-05 0)
(0.003468600868 -4.874754509e-05 0)
(0.003715823296 -4.278367675e-05 0)
(0.003926772773 -3.585418935e-05 0)
(0.004096739988 -2.808663076e-05 0)
(0.004221770752 -1.948483401e-05 0)
(0.004298696158 -1.053426989e-05 0)
(0.004326609326 -1.861948732e-06 0)
(0.004306606006 6.256611903e-06 0)
(0.004241070723 1.362167039e-05 0)
(0.004133509559 2.008067704e-05 0)
(0.003988277165 2.55395485e-05 0)
(0.00381042345 2.993971678e-05 0)
(0.003605346341 3.329632096e-05 0)
(0.003378572793 3.563031938e-05 0)
(0.003135679153 3.701333307e-05 0)
(0.002882033361 3.753134528e-05 0)
(0.002622686542 3.728708561e-05 0)
(0.002362282763 3.638814663e-05 0)
(0.002105013992 3.49341338e-05 0)
(0.001854614261 3.300870515e-05 0)
(0.00161438394 3.067830532e-05 0)
(0.001387215538 2.79987409e-05 0)
(0.001175624212 2.501612498e-05 0)
(0.0009817802731 2.175669973e-05 0)
(0.0008072972212 1.83303611e-05 0)
(0.0006531325358 1.490998725e-05 0)
(0.0005197984811 1.147936287e-05 0)
(0.0004077725175 7.929783654e-06 0)
(0.0003175236721 4.288509884e-06 0)
(0.0002492128481 6.101157804e-07 0)
(0.000202641371 -3.041035077e-06 0)
(0.0001772238508 -6.586634375e-06 0)
(0.0001719773739 -9.939528339e-06 0)
(0.0001855338009 -1.301295274e-05 0)
(0.0002161700374 -1.572536825e-05 0)
(0.0002618534226 -1.79991435e-05 0)
(0.0003202834466 -1.976016782e-05 0)
(0.0003889600627 -2.093958349e-05 0)
(0.0004652746647 -2.14693672e-05 0)
(0.0005465390593 -2.129777288e-05 0)
(0.0006300232749 -2.038679586e-05 0)
(0.0007130112204 -1.869873146e-05 0)
(0.0007927995549 -1.619558778e-05 0)
(0.0008666979438 -1.284211215e-05 0)
(0.0009320333663 -8.621173202e-06 0)
(0.0009861569608 -3.533452687e-06 0)
(0.001026473413 2.398783746e-06 0)
(0.001050490886 9.117525064e-06 0)
(0.001055901342 1.65219536e-05 0)
(0.001040690486 2.446613035e-05 0)
(0.001003279411 3.275618593e-05 0)
(0.0009426887352 4.115185664e-05 0)
(0.0008587088038 4.937103143e-05 0)
(0.0007520662861 5.710253831e-05 0)
(0.0006245520259 6.402923303e-05 0)
(0.0004790985385 6.984684633e-05 0)
(0.0003198001879 7.427483531e-05 0)
(0.0001518360585 7.708622411e-05 0)
(-1.873222581e-05 7.813916611e-05 0)
(-0.0001852633129 7.738273717e-05 0)
(-0.0003409340499 7.486194333e-05 0)
(-0.0004792101906 7.073038072e-05 0)
(-0.0005942860057 6.523283893e-05 0)
(-0.0006814365608 5.866879125e-05 0)
(-0.0007374145197 5.140559241e-05 0)
(-0.0007607413793 4.388580294e-05 0)
(-0.0007518457099 3.654395025e-05 0)
(-0.0007128828989 2.971803896e-05 0)
(-0.0006474039717 2.365289359e-05 0)
(-0.000560044166 1.851951475e-05 0)
(-0.000456321855 1.441572589e-05 0)
(-0.000342319835 1.137375335e-05 0)
(-0.0002243142252 9.361007649e-06 0)
(-0.0001084076561 8.286450498e-06 0)
(-1.624745791e-07 8.008579381e-06 0)
(9.572588293e-05 8.341709122e-06 0)
(0.0001756724768 9.073234544e-06 0)
(0.0002373226974 9.995656224e-06 0)
(0.000279566839 1.091881789e-05 0)
(0.0003024415881 1.16756278e-05 0)
(0.0003069667686 1.214481435e-05 0)
(0.0002949364711 1.225227399e-05 0)
(0.0002686989975 1.195627877e-05 0)
(0.0002309352021 1.125794108e-05 0)
(0.0001844472887 1.018735149e-05 0)
(0.0001320108442 8.779061099e-06 0)
(7.624351907e-05 7.086261065e-06 0)
(1.948705459e-05 5.18754598e-06 0)
(-3.624057913e-05 3.155617348e-06 0)
(-8.925854689e-05 1.045505865e-06 0)
(-0.0001382462218 -1.084245598e-06 0)
(-0.0001822322151 -3.174502805e-06 0)
(-0.0002205521078 -5.183969818e-06 0)
(-0.0002528120619 -7.084574844e-06 0)
(-0.0002788537054 -8.853674777e-06 0)
(-0.000298704388 -1.047619876e-05 0)
(-0.000312529927 -1.194457155e-05 0)
(-0.0003205987349 -1.325500955e-05 0)
(-0.0003232401999 -1.441415802e-05 0)
(-0.0003208080759 -1.543889642e-05 0)
(-0.0003136555839 -1.634136502e-05 0)
(-0.0003021265102 -1.713025019e-05 0)
(-0.0002865295604 -1.78241974e-05 0)
(-0.0002671176165 -1.84504784e-05 0)
(-0.0002440855317 -1.90309682e-05 0)
(-0.0002175513779 -1.958969333e-05 0)
(-0.0001875411127 -2.015657797e-05 0)
(-0.0001540450616 -2.073979909e-05 0)
(-0.0001172414385 -2.126581632e-05 0)
(-7.801657338e-05 -2.146786504e-05 0)
(-3.883469259e-05 -2.076992918e-05 0)
(-6.128905068e-06 -1.790305729e-05 0)
(5.936554664e-06 -9.062036028e-06 0)
(-3.525773908e-05 7.622454007e-05 0)
(-0.0001762316254 0.0001338979548 0)
(-0.0003332370132 0.0001380658289 0)
(-0.0004717896257 0.0001185437997 0)
(-0.0005766424822 9.142418129e-05 0)
(-0.0006446024549 6.233404779e-05 0)
(-0.0006742967269 3.223454602e-05 0)
(-0.0006641167307 5.13915472e-07 0)
(-0.0006116020146 -3.367078929e-05 0)
(-0.000513557729 -7.092907181e-05 0)
(-0.0003664005228 -0.0001115527259 0)
(-0.0001664661382 -0.0001555645477 0)
(8.973897544e-05 -0.0002027495156 0)
(0.0004052314716 -0.0002526451994 0)
(0.0007822739824 -0.0003045264648 0)
(0.00122207081 -0.000357382988 0)
(0.001724448494 -0.0004099086306 0)
(0.002287537357 -0.0004605147253 0)
(0.002907482602 -0.0005073710264 0)
(0.003578229814 -0.0005484838775 0)
(0.004291416747 -0.0005818115524 0)
(0.005036398798 -0.0006053995169 0)
(0.005800433264 -0.0006175267937 0)
(0.006569025541 -0.0006168503378 0)
(0.007326409542 -0.0006025207811 0)
(0.008056134614 -0.0005742532393 0)
(0.008741707603 -0.0005323529375 0)
(0.009367224694 -0.0004776810467 0)
(0.009917937317 -0.0004115628181 0)
(0.0103808126 -0.0003356698733 0)
(0.0107445435 -0.0002517755183 0)
(0.0110004076 -0.0001614000935 0)
(0.01114294531 -6.734079673e-05 0)
(0.01116790227 2.658638278e-05 0)
(0.01107641539 0.0001173251282 0)
(0.01087268587 0.0002024785486 0)
(0.01056371609 0.0002801065282 0)
(0.01015879351 0.0003487242826 0)
(0.009669144242 0.0004072559407 0)
(0.009107216738 0.0004551296067 0)
(0.008486232947 0.0004920754199 0)
(0.00781991267 0.0005182335769 0)
(0.007121857683 0.0005340278878 0)
(0.006405239913 0.0005401079239 0)
(0.005682503524 0.000537272043 0)
(0.004965157583 0.0005263897269 0)
(0.004263657091 0.0005083323531 0)
(0.00358735722 0.0004839333455 0)
(0.002944495833 0.000453992812 0)
(0.002342202263 0.0004193181427 0)
(0.001786571479 0.0003807770722 0)
(0.001282326344 0.0003395261029 0)
(0.0008325444403 0.0002968098048 0)
(0.0004393150504 0.0002531558306 0)
(0.0001033759034 0.000208599451 0)
(-0.0001747486851 0.0001636571904 0)
(-0.0003954104459 0.0001190264372 0)
(-0.0005599233362 7.547462622e-05 0)
(-0.0006705890252 3.380246821e-05 0)
(-0.0007306856606 -5.191602041e-06 0)
(-0.0007444057564 -4.075088539e-05 0)
(-0.000716752205 -7.219980053e-05 0)
(-0.0006533941917 -9.896990319e-05 0)
(-0.0005605236961 -0.0001206097263 0)
(-0.000444689352 -0.0001368078231 0)
(-0.0003124979629 -0.0001473594959 0)
(-0.0001705208523 -0.0001521757999 0)
(-2.522740373e-05 -0.0001512558072 0)
(0.0001171736325 -0.0001446470716 0)
(0.0002507460626 -0.0001324266556 0)
(0.0003698983214 -0.0001146976065 0)
(0.000469450495 -9.159306376e-05 0)
(0.0005445561611 -6.329306906e-05 0)
(0.0005907684433 -3.005496825e-05 0)
(0.0006040987421 7.733643025e-06 0)
(0.0005811223735 4.950068024e-05 0)
(0.0005191357329 9.443979034e-05 0)
(0.000416364458 0.000141470284 0)
(0.0002722113828 0.0001892155861 0)
(8.752836602e-05 0.0002360075584 0)
(-0.0001351171552 0.0002799246517 0)
(-0.0003912192565 0.0003188686135 0)
(-0.0006741859674 0.0003506818691 0)
(-0.0009753089617 0.0003732847618 0)
(-0.001283907125 0.0003848560453 0)
(-0.001587682131 0.0003840532436 0)
(-0.001873290786 0.0003702129655 0)
(-0.002127130335 0.000343479018 0)
(-0.002336255882 0.0003048282224 0)
(-0.002489250161 0.0002559946752 0)
(-0.002576967271 0.0001993699374 0)
(-0.002593344686 0.0001379605726 0)
(-0.002536047437 7.525125371e-05 0)
(-0.002406671008 1.471737156e-05 0)
(-0.002210279991 -4.064134201e-05 0)
(-0.001955130627 -8.855860368e-05 0)
(-0.001651775344 -0.0001272328652 0)
(-0.001312812704 -0.0001552027127 0)
(-0.0009524208797 -0.0001716218573 0)
(-0.0005854309442 -0.000176372651 0)
(-0.0002264863037 -0.0001700694139 0)
(0.0001108079856 -0.0001539978713 0)
(0.0004146555877 -0.0001299909734 0)
(0.0006756832411 -0.0001002565714 0)
(0.0008873330208 -6.715942075e-05 0)
(0.001046049761 -3.299147427e-05 0)
(0.001151130548 2.318437917e-07 0)
(0.001204422472 3.082234412e-05 0)
(0.00120985436 5.746873584e-05 0)
(0.001172895068 7.927748601e-05 0)
(0.001100038366 9.577935815e-05 0)
(0.0009983144992 0.0001068747065 0)
(0.0008748672869 0.0001127506123 0)
(0.0007365980205 0.0001138108256 0)
(0.0005898867113 0.0001106350655 0)
(0.0004404215149 0.0001039067025 0)
(0.0002930894723 9.432697593e-05 0)
(0.0001519144184 8.258694216e-05 0)
(2.00637436e-05 6.93521956e-05 0)
(-0.0001001012478 5.521899762e-05 0)
(-0.0002069556314 4.069480887e-05 0)
(-0.0002995182921 2.619911294e-05 0)
(-0.0003773437416 1.206284512e-05 0)
(-0.0004404120546 -1.473789514e-06 0)
(-0.000489024908 -1.425069714e-05 0)
(-0.0005237045723 -2.618021347e-05 0)
(-0.0005451063638 -3.724046076e-05 0)
(-0.0005539575134 -4.745533706e-05 0)
(-0.0005510002334 -5.687849256e-05 0)
(-0.0005369380088 -6.5593692e-05 0)
(-0.0005124056323 -7.372165248e-05 0)
(-0.0004779415401 -8.140910717e-05 0)
(-0.0004339577906 -8.88134054e-05 0)
(-0.0003807467572 -9.604237457e-05 0)
(-0.0003186258177 -0.000102958049 0)
(-0.0002483701282 -0.00010874785 0)
(-0.0001721915107 -0.000111200806 0)
(-9.519461832e-05 -0.0001058033204 0)
(-2.915764927e-05 -8.495921946e-05 0)
(5.391042623e-06 -3.916937734e-05 0)
(-3.764429499e-05 0.0001658320331 0)
(-0.0001890003222 0.0002758095614 0)
(-0.0003483438131 0.0002713021048 0)
(-0.0004778585427 0.0002179851947 0)
(-0.0005599573273 0.0001481859591 0)
(-0.000590454866 7.353875807e-05 0)
(-0.0005671757629 -3.839203559e-06 0)
(-0.0004877232997 -8.514296383e-05 0)
(-0.0003488236509 -0.0001720455541 0)
(-0.0001463971165 -0.0002657543699 0)
(0.0001241667057 -0.0003668533169 0)
(0.0004675429993 -0.0004752866743 0)
(0.0008881136437 -0.0005904196911 0)
(0.001389601953 -0.0007110444587 0)
(0.001974694733 -0.0008353466354 0)
(0.002644631646 -0.0009608608818 0)
(0.003398776726 -0.00108445364 0)
(0.004234190664 -0.001202357168 0)
(0.005145241177 -0.001310271754 0)
(0.006123309848 -0.001403548104 0)
(0.0071566438 -0.00147744375 0)
(0.008230384701 -0.001527430883 0)
(0.009326809244 -0.001549527458 0)
(0.01042578907 -0.001540615415 0)
(0.01150543291 -0.001498697748 0)
(0.01254286833 -0.001423062155 0)
(0.0135151019 -0.001314333525 0)
(0.01439987266 -0.001174404059 0)
(0.01517642499 -0.001006255498 0)
(0.01582620801 -0.0008137119392 0)
(0.01633355502 -0.0006013091601 0)
(0.01668482163 -0.0003735914094 0)
(0.01687301417 -0.0001363718648 0)
(0.01689125748 0.000102599561 0)
(0.01673950981 0.000335678937 0)
(0.01642238622 0.0005567201981 0)
(0.01594847022 0.0007605935376 0)
(0.01532981439 0.0009431840251 0)
(0.01458154576 0.001101355364 0)
(0.01372092029 0.001233058641 0)
(0.01276678145 0.001337102768 0)
(0.01173915863 0.001413272062 0)
(0.01065834036 0.001462139459 0)
(0.009544384264 0.001484931116 0)
(0.008416595171 0.001483363098 0)
(0.007293111225 0.001459469149 0)
(0.006190606211 0.001415439216 0)
(0.005124109844 0.001353497276 0)
(0.004106900545 0.001275858765 0)
(0.003150459599 0.001184776122 0)
(0.002264663946 0.001082618841 0)
(0.001457424749 0.0009721598654 0)
(0.0007343202661 0.0008566377052 0)
(9.972204765e-05 0.0007385458388 0)
(-0.0004463224708 0.0006188254698 0)
(-0.0009037372521 0.0004989659118 0)
(-0.001273897406 0.0003808684822 0)
(-0.001559678869 0.0002665862917 0)
(-0.001765463573 0.0001582057315 0)
(-0.001897095582 5.7750946e-05 0)
(-0.001961758401 -3.29126646e-05 0)
(-0.001967789972 -0.0001121656631 0)
(-0.00192443643 -0.0001787048866 0)
(-0.001841615145 -0.0002315704214 0)
(-0.001729641368 -0.000270224315 0)
(-0.001598715784 -0.0002944511564 0)
(-0.001458883433 -0.0003043432453 0)
(-0.001319768193 -0.0003002282941 0)
(-0.001190362356 -0.0002825972193 0)
(-0.001078951892 -0.0002520708519 0)
(-0.000992949339 -0.0002093798404 0)
(-0.0009388455207 -0.0001553120921 0)
(-0.0009222312652 -9.072178267e-05 0)
(-0.0009477385133 -1.660451276e-05 0)
(-0.001018980115 6.581800035e-05 0)
(-0.001138459889 0.0001550038289 0)
(-0.001307448695 0.0002489971213 0)
(-0.00152581665 0.0003453471093 0)
(-0.001791834684 0.0004410630156 0)
(-0.002101951591 0.0005326141965 0)
(-0.00245056955 0.0006159928681 0)
(-0.002829866314 0.0006868575797 0)
(-0.003229698532 0.0007407544003 0)
(-0.003637619221 0.000773408291 0)
(-0.004039080574 0.0007811016337 0)
(-0.004417879204 0.0007611284178 0)
(-0.004756832776 0.0007122314496 0)
(-0.005038687468 0.0006349136396 0)
(-0.005247219231 0.0005315207626 0)
(-0.005368323883 0.0004060815826 0)
(-0.005390917707 0.0002641150616 0)
(-0.005307961382 0.0001125875298 0)
(-0.005117498609 -4.019636268e-05 0)
(-0.004823007813 -0.0001865235133 0)
(-0.004432100806 -0.0003200870791 0)
(-0.003955385346 -0.0004351549641 0)
(-0.003408239102 -0.0005268452543 0)
(-0.002808996212 -0.0005914842012 0)
(-0.002177925148 -0.000626875528 0)
(-0.001536324783 -0.000632512502 0)
(-0.0009054327542 -0.0006096185816 0)
(-0.0003053371512 -0.0005610564384 0)
(0.0002460527689 -0.0004910899443 0)
(0.0007338950653 -0.0004050148825 0)
(0.00114706757 -0.0003086984793 0)
(0.00147854786 -0.0002080582345 0)
(0.001725578896 -0.0001086322321 0)
(0.001889435896 -1.518127682e-05 0)
(0.001974976799 6.875978358e-05 0)
(0.001989484183 0.0001406062218 0)
(0.001942004332 0.000198810451 0)
(0.001842598607 0.0002427616909 0)
(0.001701739477 0.0002726385892 0)
(0.001529781551 0.0002892409537 0)
(0.001336479448 0.0002938387833 0)
(0.001130823102 0.0002880014477 0)
(0.0009207398211 0.0002734546841 0)
(0.0007129610766 0.0002519687749 0)
(0.0005130003601 0.0002252725144 0)
(0.0003251831529 0.0001949635497 0)
(0.0001527292531 0.0001624487958 0)
(-2.137567738e-06 0.0001289236302 0)
(-0.0001380482079 9.535978099e-05 0)
(-0.0002543390464 6.250148757e-05 0)
(-0.0003509025659 3.088159731e-05 0)
(-0.000428039096 8.407008088e-07 0)
(-0.000486324322 -2.744688595e-05 0)
(-0.0005265110352 -5.393470373e-05 0)
(-0.00054944534 -7.867179127e-05 0)
(-0.0005559863497 -0.0001017893246 0)
(-0.0005469653193 -0.000123494544 0)
(-0.0005231377881 -0.0001440572296 0)
(-0.0004851538678 -0.0001637620578 0)
(-0.0004335710641 -0.0001827485674 0)
(-0.0003690258659 -0.0002005800176 0)
(-0.0002927326207 -0.0002153771749 0)
(-0.0002075503876 -0.0002224375011 0)
(-0.0001194872844 -0.0002126001945 0)
(-4.172532776e-05 -0.0001712001976 0)
(3.46209707e-06 -7.956506919e-05 0)
(-3.683996955e-05 0.0002552836249 0)
(-0.0001804205315 0.0004114574986 0)
(-0.00032334406 0.0003891607835 0)
(-0.0004273117366 0.0002912428056 0)
(-0.0004739644505 0.0001669086631 0)
(-0.0004583984694 3.401906978e-05 0)
(-0.000377626116 -0.0001041057328 0)
(-0.0002285231448 -0.0002491715055 0)
(-6.95292303e-06 -0.0004037757437 0)
(0.0002921647545 -0.0005698530963 0)
(0.0006744224717 -0.0007482680542 0)
(0.001145496578 -0.0009388395078 0)
(0.001710723284 -0.001140408868 0)
(0.00237466814 -0.001350836601 0)
(0.003140663038 -0.001566942374 0)
(0.004010293082 -0.001784427728 0)
(0.004982851304 -0.001997844127 0)
(0.006054794021 -0.002200652853 0)
(0.007219239564 -0.002385401727 0)
(0.008465578882 -0.00254403407 0)
(0.009779268277 -0.002668328295 0)
(0.01114185379 -0.002750428478 0)
(0.01253126306 -0.002783412907 0)
(0.01392237973 -0.002761839631 0)
(0.015287861 -0.002682191098 0)
(0.01659912699 -0.002543155436 0)
(0.01782744528 -0.002345716542 0)
(0.01894501084 -0.002093047283 0)
(0.01992592942 -0.001790227421 0)
(0.02074702801 -0.001443841554 0)
(0.02138879267 -0.001061657365 0)
(0.02183464798 -0.0006522651669 0)
(0.02207401041 -0.0002252379368 0)
(0.02209949557 0.0002070617156 0)
(0.02190889488 0.0006313514844 0)
(0.02150682678 0.001036660895 0)
(0.02090257172 0.001413577515 0)
(0.02010984164 0.001754308337 0)
(0.01914641347 0.002052674445 0)
(0.01803306261 0.002304240859 0)
(0.01679302538 0.002506121189 0)
(0.01545151911 0.002657156047 0)
(0.01403454777 0.002757667242 0)
(0.01256825812 0.002809269324 0)
(0.0110782004 0.002814626087 0)
(0.009588688832 0.00277717028 0)
(0.008122287593 0.002700822309 0)
(0.006699454447 0.002589745743 0)
(0.005338316492 0.002448189545 0)
(0.004054543085 0.002280467907 0)
(0.002861601487 0.002091026279 0)
(0.001770597463 0.001884582032 0)
(0.0007893514246 0.001666875022 0)
(-7.429791423e-05 0.001444208428 0)
(-0.000820749863 0.001219816044 0)
(-0.001451022519 0.0009964921361 0)
(-0.001967754545 0.0007778255369 0)
(-0.002375611284 0.0005676635143 0)
(-0.002681238102 0.0003698649657 0)
(-0.002893187978 0.0001881168038 0)
(-0.003021748709 2.575958416e-05 0)
(-0.003078680826 -0.0001143686042 0)
(-0.003076862661 -0.000230061454 0)
(-0.003029979152 -0.0003197862998 0)
(-0.002952014129 -0.0003828262306 0)
(-0.002856898534 -0.0004191200902 0)
(-0.002758039231 -0.0004292237272 0)
(-0.002668084892 -0.0004141630471 0)
(-0.002598684615 -0.0003753630808 0)
(-0.002560081594 -0.0003145425128 0)
(-0.002561053449 -0.0002336185955 0)
(-0.002608957482 -0.0001346408602 0)
(-0.002709486497 -1.979941403e-05 0)
(-0.002866669781 0.0001085093224 0)
(-0.003082822645 0.0002475904633 0)
(-0.00335850089 0.0003943370616 0)
(-0.00369245464 0.0005451159358 0)
(-0.004081566038 0.0006956661285 0)
(-0.004520770583 0.0008410384851 0)
(-0.005002962262 0.0009755985893 0)
(-0.005518881918 0.001093107511 0)
(-0.006057032886 0.001186917038 0)
(-0.006603670278 0.001250291278 0)
(-0.0071428864 0.00127684235 0)
(-0.007656843923 0.001261085572 0)
(-0.008126235769 0.001199122706 0)
(-0.008530978842 0.00108932659 0)
(-0.008851127269 0.0009328597951 0)
(-0.009068039592 0.0007338518596 0)
(-0.009165605827 0.0004991837532 0)
(-0.009131212954 0.0002382349218 0)
(-0.008956848117 -3.693529044e-05 0)
(-0.008641764643 -0.0003124490742 0)
(-0.008189613565 -0.0005759452409 0)
(-0.007608274702 -0.000816408529 0)
(-0.006913059828 -0.001023586547 0)
(-0.006122885242 -0.001188679788 0)
(-0.005260326462 -0.001305142809 0)
(-0.004350542713 -0.00136899111 0)
(-0.003420148385 -0.001379027131 0)
(-0.002496001659 -0.00133694537 0)
(-0.001603963589 -0.001247235788 0)
(-0.0007676979652 -0.001116860309 0)
(-7.587855514e-06 -0.0009547142122 0)
(0.0006601458698 -0.0007709275781 0)
(0.001224094431 -0.0005760756457 0)
(0.001677886977 -0.0003804138904 0)
(0.002019992399 -0.0001931982922 0)
(0.002254029058 -2.189318961e-05 0)
(0.002387801108 0.0001283730837 0)
(0.00243190984 0.0002543715096 0)
(0.002398572177 0.0003545271976 0)
(0.002300799539 0.0004287431672 0)
(0.002151721205 0.0004780739464 0)
(0.001964034172 0.0005044746299 0)
(0.001749565237 0.0005105268924 0)
(0.001518991448 0.0004991862113 0)
(0.001281602732 0.0004735580414 0)
(0.001045295073 0.0004367244377 0)
(0.0008165480713 0.0003916088587 0)
(0.0006004158078 0.0003408561048 0)
(0.0004006642386 0.0002867634835 0)
(0.00021992676 0.000231237372 0)
(5.98734016e-05 0.0001757815114 0)
(-7.861297476e-05 0.0001215197857 0)
(-0.0001952599704 6.923135718e-05 0)
(-0.000290239835 1.938862383e-05 0)
(-0.0003640320153 -2.778304465e-05 0)
(-0.0004173226973 -7.22471803e-05 0)
(-0.0004509086121 -0.0001141124691 0)
(-0.0004656031607 -0.0001536168704 0)
(-0.0004622238524 -0.0001911125122 0)
(-0.0004415274193 -0.0002269751129 0)
(-0.0004042194327 -0.0002613371578 0)
(-0.0003511055837 -0.0002934251212 0)
(-0.0002835614196 -0.0003202527152 0)
(-0.0002045626691 -0.0003345871856 0)
(-0.0001201191666 -0.0003225795286 0)
(-4.343978054e-05 -0.0002621808036 0)
(2.944489243e-06 -0.0001239234663 0)
(-3.558122672e-05 0.0003382830917 0)
(-0.0001688281439 0.0005315246664 0)
(-0.0002935220562 0.0004833583338 0)
(-0.0003716196472 0.0003325893948 0)
(-0.0003844022859 0.0001450024129 0)
(-0.000326258573 -5.555392331e-05 0)
(-0.0001934057033 -0.0002645844843 0)
(1.824231805e-05 -0.0004844711957 0)
(0.0003139583431 -0.0007188433809 0)
(0.0006999925599 -0.0009703701273 0)
(0.001183191014 -0.001240238696 0)
(0.001770535955 -0.001528149625 0)
(0.002468671159 -0.001832371173 0)
(0.003283396951 -0.002149707561 0)
(0.004219108588 -0.002475390598 0)
(0.005278162814 -0.002802954458 0)
(0.006460187493 -0.003124176956 0)
(0.007761383781 -0.003429161141 0)
(0.009173880477 -0.003706598366 0)
(0.01068521865 -0.00394423618 0)
(0.01227806297 -0.004129543295 0)
(0.01393021778 -0.004250525288 0)
(0.01561499189 -0.004296603017 0)
(0.01730192865 -0.004259450716 0)
(0.01895786027 -0.004133680825 0)
(0.02054817826 -0.003917272261 0)
(0.02203820503 -0.003611699379 0)
(0.02339454313 -0.003221766036 0)
(0.02458629086 -0.00275518466 0)
(0.02558599653 -0.002221985461 0)
(0.02637068783 -0.001633929966 0)
(0.02692150814 -0.001004154275 0)
(0.02722490061 -0.0003464776754 0)
(0.02727343842 0.0003214403231 0)
(0.02706257161 0.0009800354659 0)
(0.02659699964 0.001612715944 0)
(0.02588641903 0.00220492836 0)
(0.0249457515 0.002744336474 0)
(0.02379479993 0.003220839757 0)
(0.02245713296 0.003626743348 0)
(0.02095968683 0.0039566431 0)
(0.01933222794 0.00420775587 0)
(0.01760588445 0.004379618949 0)
(0.01581241733 0.004473897841 0)
(0.01398326976 0.004494087448 0)
(0.01214869619 0.004445128142 0)
(0.01033701386 0.004332986446 0)
(0.008574030453 0.004164252245 0)
(0.006882666862 0.003945809433 0)
(0.005282733059 0.003684662773 0)
(0.0037910596 0.003387945973 0)
(0.00242181197 0.00306285577 0)
(0.001184742882 0.002717359959 0)
(9.035676105e-05 0.002362392962 0)
(-0.0008584946746 0.002006331656 0)
(-0.001665097638 0.001653886839 0)
(-0.002333512032 0.001310654229 0)
(-0.002870321062 0.0009827137307 0)
(-0.003284531596 0.0006761460591 0)
(-0.003587492263 0.0003967189302 0)
(-0.003792690451 0.0001496014057 0)
(-0.003915428239 -6.088245128e-05 0)
(-0.003972348951 -0.0002314611526 0)
(-0.003981076779 -0.0003599934673 0)
(-0.003959500845 -0.0004456412874 0)
(-0.003925244408 -0.0004886561277 0)
(-0.003895353318 -0.0004903888796 0)
(-0.003885593998 -0.0004530370769 0)
(-0.003910061895 -0.0003795034207 0)
(-0.003980993206 -0.0002732186207 0)
(-0.004108560042 -0.0001379589996 0)
(-0.004300589549 2.222496581e-05 0)
(-0.004562478617 0.000203028036 0)
(-0.004897138838 0.0003998786926 0)
(-0.005304987818 0.0006078786968 0)
(-0.005783994525 0.0008217162715 0)
(-0.006329769954 0.001035569013 0)
(-0.006935675224 0.001243009572 0)
(-0.007592922889 0.001436937414 0)
(-0.008290652067 0.001609573893 0)
(-0.0090159531 0.001752543045 0)
(-0.009753865576 0.001857084663 0)
(-0.0104874128 0.001914433845 0)
(-0.01119769757 0.001916358357 0)
(-0.01186408348 0.001855855192 0)
(-0.0124645679 0.001728034253 0)
(-0.01297638801 0.001531034301 0)
(-0.01337688172 0.001266806446 0)
(-0.01364472694 0.0009414696624 0)
(-0.01376131292 0.0005650750785 0)
(-0.01371157502 0.0001513758388 0)
(-0.01348600232 -0.0002817822487 0)
(-0.01308420271 -0.000714880171 0)
(-0.0125061221 -0.001129511866 0)
(-0.01176434829 -0.001508586842 0)
(-0.01087553883 -0.001836450139 0)
(-0.009861507017 -0.002100040379 0)
(-0.008748348104 -0.002289406841 0)
(-0.00756536252 -0.002398203593 0)
(-0.006343867281 -0.002424076969 0)
(-0.005115877027 -0.002368850859 0)
(-0.003912732714 -0.002238440789 0)
(-0.002763758788 -0.002042462557 0)
(-0.001695021322 -0.00179355129 0)
(-0.0007282624323 -0.001506439039 0)
(0.0001199025106 -0.001196871854 0)
(0.0008384844092 -0.0008805185368 0)
(0.001422229943 -0.0005718974272 0)
(0.001871347742 -0.0002835375474 0)
(0.002190842361 -2.554552055e-05 0)
(0.002391342297 0.0001959970957 0)
(0.00248659897 0.0003781466398 0)
(0.002491669331 0.0005201795517 0)
(0.002421977506 0.0006231500291 0)
(0.00229271231 0.0006895919798 0)
(0.00211828034 0.0007230842205 0)
(0.001911928528 0.0007278853308 0)
(0.001685482096 0.0007085878187 0)
(0.001449183594 0.0006698232917 0)
(0.001211609047 0.0006160401484 0)
(0.0009797643874 0.0005513488504 0)
(0.0007592046212 0.0004794144498 0)
(0.0005540690957 0.0004033402582 0)
(0.0003673000435 0.0003256349813 0)
(0.0002008371671 0.0002482315675 0)
(5.58073728e-05 0.0001725356748 0)
(-6.729079054e-05 9.948370252e-05 0)
(-0.000168416506 2.962382346e-05 0)
(-0.000247864368 -3.680253954e-05 0)
(-0.0003061606967 -9.979635917e-05 0)
(-0.0003439536825 -0.0001595516631 0)
(-0.0003619332462 -0.0002164283169 0)
(-0.0003608149886 -0.0002708404171 0)
(-0.0003413024985 -0.0003228906458 0)
(-0.0003042046872 -0.0003714837938 0)
(-0.0002508479149 -0.0004126086229 0)
(-0.0001840370845 -0.0004366621391 0)
(-0.0001094323479 -0.0004252864321 0)
(-3.970453438e-05 -0.0003490437316 0)
(3.131984034e-06 -0.0001672155115 0)
(-3.457595353e-05 0.0004162778881 0)
(-0.0001602112682 0.000639038544 0)
(-0.0002705967387 0.0005580250589 0)
(-0.0003274844645 0.0003471740935 0)
(-0.0003115647897 8.856023938e-05 0)
(-0.0002164336702 -0.0001881681943 0)
(-3.739583849e-05 -0.0004775520751 0)
(0.0002308641473 -0.0007828622359 0)
(0.0005949324783 -0.001108832444 0)
(0.001062539459 -0.001458983504 0)
(0.001642150825 -0.001834917528 0)
(0.002342475139 -0.002236266351 0)
(0.0031719307 -0.002660712867 0)
(0.004138045802 -0.003103900627 0)
(0.005246772707 -0.003559246249 0)
(0.00650169798 -0.004017741702 0)
(0.007903165627 -0.004467851898 0)
(0.009447377856 -0.0048956106 0)
(0.01112555339 -0.005284985426 0)
(0.01292324655 -0.005618541317 0)
(0.01481995042 -0.005878397082 0)
(0.01678909925 -0.006047411325 0)
(0.01879853925 -0.006110470677 0)
(0.02081148491 -0.006055718655 0)
(0.02278790614 -0.005875547383 0)
(0.02468619249 -0.005567206319 0)
(0.02646491233 -0.005132958545 0)
(0.02808450126 -0.004579807851 0)
(0.02950874488 -0.003918873426 0)
(0.03070590547 -0.003164535941 0)
(0.03164976875 -0.002333513941 0)
(0.03231973339 -0.001444235615 0)
(0.03269962068 -0.0005152310568 0)
(0.03278338318 0.0004300962732 0)
(0.03256395879 0.001365432866 0)
(0.03204649052 0.002267906349 0)
(0.03124119303 0.003117119885 0)
(0.03016414662 0.00389547192 0)
(0.02883692643 0.004588166426 0)
(0.02728553511 0.005183401749 0)
(0.02554027293 0.005672477711 0)
(0.02363513485 0.006050247862 0)
(0.02160607323 0.006314851592 0)
(0.01949025755 0.00646756407 0)
(0.01732492539 0.00651248832 0)
(0.01514627505 0.006456091235 0)
(0.01298846563 0.006306642085 0)
(0.01088279214 0.006073618687 0)
(0.008857099324 0.005767161024 0)
(0.006935440547 0.005397670788 0)
(0.005138019581 0.00497565428 0)
(0.003481577772 0.004511634747 0)
(0.001978910391 0.004016282404 0)
(0.0006386405937 0.003502892441 0)
(-0.0005281041127 0.002988164514 0)
(-0.001525737428 0.002481358501 0)
(-0.002360562503 0.00199023386 0)
(-0.003041209511 0.001523413714 0)
(-0.003579175929 0.001089621294 0)
(-0.003988715872 0.0006971311818 0)
(-0.004286652006 0.0003533303078 0)
(-0.004492011699 6.433970076e-05 0)
(-0.004625444374 -0.0001652982147 0)
(-0.004708793131 -0.0003327692598 0)
(-0.004764197916 -0.0004371737036 0)
(-0.004813322753 -0.0004793189993 0)
(-0.004876931631 -0.000461686207 0)
(-0.00497410508 -0.000388155372 0)
(-0.005121735896 -0.000263716409 0)
(-0.005334087949 -9.420395633e-05 0)
(-0.005622444804 0.0001139116375 0)
(-0.00599485198 0.0003536825179 0)
(-0.006455963141 0.0006177959503 0)
(-0.007006998333 0.0008986434052 0)
(-0.007645830765 0.001188353615 0)
(-0.008367199511 0.001478796438 0)
(-0.009163033154 0.001761553573 0)
(-0.01002282469 0.002027855084 0)
(-0.01093398521 0.002268491392 0)
(-0.01188212409 0.002473754562 0)
(-0.01285119814 0.00263345945 0)
(-0.01382353439 0.002737105152 0)
(-0.01477981067 0.002774239859 0)
(-0.015699033 0.00273502069 0)
(-0.01655850365 0.002610990654 0)
(-0.01733394576 0.002396166282 0)
(-0.01799988642 0.002088205792 0)
(-0.01853041333 0.001689584283 0)
(-0.01890060816 0.001208292694 0)
(-0.01908812437 0.0006576768014 0)
(-0.01907403796 5.619628248e-05 0)
(-0.0188470006 -0.0005726766047 0)
(-0.01840150782 -0.00120226296 0)
(-0.01773911577 -0.001806423436 0)
(-0.01687241985 -0.002360933462 0)
(-0.01581948936 -0.002844386228 0)
(-0.01460436877 -0.003238657589 0)
(-0.01325617955 -0.003529625857 0)
(-0.01180804861 -0.003707889412 0)
(-0.01029583756 -0.003769336406 0)
(-0.008756698783 -0.003715442903 0)
(-0.0072275425 -0.003553214419 0)
(-0.005743523582 -0.003294739942 0)
(-0.004336635041 -0.002956370679 0)
(-0.003034485246 -0.002557590239 0)
(-0.00185933915 -0.002119661657 0)
(-0.0008274608009 -0.001664173837 0)
(5.117250386e-05 -0.001211646743 0)
(0.0007727996802 -0.0007802856401 0)
(0.001339720699 -0.0003850797315 0)
(0.001758675048 -3.767924374e-05 0)
(0.002041587764 0.0002548691387 0)
(0.002205586655 0.0004909756716 0)
(0.002268210434 0.0006716036272 0)