/*--------------------------------*- C++ -*----------------------------------*\
| =========                 |                                                 |
| \\      /  F ield         | OpenFOAM: The Open Source CFD Toolbox           |
|  \\    /   O peration     | Version:  5.x                                   |
|   \\  /    A nd           | Web:      www.OpenFOAM.org                      |
|    \\/     M anipulation  |                                                 |
\*---------------------------------------------------------------------------*/
FoamFile
{
    version     2.0;
    format      ascii;
    class       volVectorField;
    location    "0.1";
    object      Urom;
}
// * * * * * * * * * * * * * * * * * * * * * * * * * * * * * * * * * * * * * //

dimensions      [0 1 -1 0 0 0 0];

internalField   nonuniform List<vector> 
17457
(
(-1.25459 -0.00567798 0)
(-1.13559 -0.00580753 0)
(-2.46396 -0.0547779 0)
(-1.03122 -0.00526866 0)
(-2.23703 -0.0495679 0)
(-2.74543 -0.121429 0)
(-0.943234 -0.00484405 0)
(-2.05437 -0.0418691 0)
(-2.53394 -0.101279 0)
(-2.61304 -0.177641 0)
(-0.861744 -0.00538658 0)
(-1.90871 -0.0353413 0)
(-2.39283 -0.0795743 0)
(-2.4937 -0.136169 0)
(-2.44918 -0.207326 0)
(-0.779617 -0.00589398 0)
(-1.77926 -0.0332288 0)
(-2.2879 -0.0655813 0)
(-2.43449 -0.1019 0)
(-2.41366 -0.150274 0)
(-2.3808 -0.216911 0)
(-0.703798 -0.00499926 0)
(-1.6537 -0.0321631 0)
(-2.18187 -0.0621493 0)
(-2.38861 -0.0870385 0)
(-2.40254 -0.109935 0)
(-2.37519 -0.153345 0)
(-2.38771 -0.223099 0)
(-0.646052 -0.00303682 0)
(-1.54145 -0.0269361 0)
(-2.06582 -0.0606021 0)
(-2.32133 -0.0880517 0)
(-2.39083 -0.0974063 0)
(-2.37692 -0.11083 0)
(-2.36697 -0.154924 0)
(-2.42716 -0.239623 0)
(-0.606253 -0.00159109 0)
(-1.45515 -0.0186755 0)
(-1.95852 -0.0510858 0)
(-2.22408 -0.0896902 0)
(-2.35353 -0.107005 0)
(-2.37659 -0.101459 0)
(-2.3664 -0.109857 0)
(-2.37239 -0.161853 0)
(-2.4735 -0.270804 0)
(-0.575146 -0.000873187 0)
(-1.38866 -0.0132099 0)
(-1.87564 -0.0373094 0)
(-2.11923 -0.0768099 0)
(-2.27004 -0.117868 0)
(-2.3475 -0.122498 0)
(-2.36733 -0.105002 0)
(-2.36141 -0.11002 0)
(-2.38493 -0.177313 0)
(-2.51415 -0.312636 0)
(-0.548443 -0.000753267 0)
(-1.32508 -0.0110506 0)
(-1.80722 -0.0302891 0)
(-2.0352 -0.0577232 0)
(-2.15445 -0.10525 0)
(-2.26223 -0.147785 0)
(-2.32763 -0.140221 0)
(-2.35349 -0.11123 0)
(-2.3508 -0.115233 0)
(-2.39619 -0.202889 0)
(-2.53866 -0.359686 0)
(-0.529851 -0.000102199 0)
(-1.26315 -0.00904952 0)
(-1.73157 -0.029738 0)
(-1.97347 -0.049468 0)
(-2.06013 -0.077486 0)
(-2.13693 -0.137406 0)
(-2.23144 -0.180297 0)
(-2.30074 -0.16187 0)
(-2.32185 -0.121273 0)
(-2.32485 -0.130007 0)
(-2.39238 -0.240636 0)
(-2.53733 -0.410967 0)
(-0.521263 0.000761477 0)
(-1.21602 -0.00491558 0)
(-1.64638 -0.0264204 0)
(-1.90934 -0.0523712 0)
(-2.01388 -0.0631753 0)
(-2.04138 -0.0954956 0)
(-2.11344 -0.169993 0)
(-2.20647 -0.212224 0)
(-2.26704 -0.183275 0)
(-2.27052 -0.134954 0)
(-2.27983 -0.155948 0)
(-2.36266 -0.291208 0)
(-2.50532 -0.470263 0)
(-0.517269 0.000989359 0)
(-1.18462 -0.00130898 0)
(-1.57095 -0.0180667 0)
(-1.82269 -0.0511935 0)
(-1.98135 -0.0699645 0)
(-2.0168 -0.0688268 0)
(-2.03188 -0.110196 0)
(-2.11769 -0.198486 0)
(-2.19996 -0.236882 0)
(-2.2287 -0.198164 0)
(-2.20889 -0.149809 0)
(-2.22101 -0.190943 0)
(-2.30704 -0.351865 0)
(-2.44164 -0.540987 0)
(-0.51145 0.000639318 0)
(-1.1552 -0.000801575 0)
(-1.50884 -0.0120678 0)
(-1.72535 -0.0411527 0)
(-1.9138 -0.0770135 0)
(-2.0181 -0.079233 0)
(-2.0239 -0.0673385 0)
(-2.05977 -0.12177 0)
(-2.15882 -0.217978 0)
(-2.20759 -0.247582 0)
(-2.19108 -0.201992 0)
(-2.14834 -0.161597 0)
(-2.1584 -0.229314 0)
(-2.23436 -0.417783 0)
(-2.34394 -0.620674 0)
(-0.50375 0.00076191 0)
(-1.1192 -0.00232968 0)
(-1.44019 -0.0131481 0)
(-1.62862 -0.0349778 0)
(-1.80419 -0.0717169 0)
(-1.97298 -0.101308 0)
(-2.04206 -0.0821846 0)
(-2.0487 -0.0642713 0)
(-2.1288 -0.132387 0)
(-2.21919 -0.224855 0)
(-2.2199 -0.241946 0)
(-2.15771 -0.19297 0)
(-2.0974 -0.168222 0)
(-2.09705 -0.264933 0)
(-2.15054 -0.482518 0)
(-2.2053 -0.701565 0)
(-0.497635 0.00136813 0)
(-1.07914 -0.00247758 0)
(-1.35437 -0.0176585 0)
(-1.51328 -0.0411884 0)
(-1.67166 -0.0697462 0)
(-1.85595 -0.108986 0)
(-2.00566 -0.124865 0)
(-2.0531 -0.0849505 0)
(-2.09432 -0.0682994 0)
(-2.21582 -0.143577 0)
(-2.27214 -0.219612 0)
(-2.22627 -0.22293 0)
(-2.12751 -0.173307 0)
(-2.05657 -0.1702 0)
(-2.03447 -0.294751 0)
(-2.04818 -0.538507 0)
(-2.01882 -0.77705 0)
(-0.490325 0.00174599 0)
(-1.03646 -0.00221357 0)
(-1.25863 -0.0195404 0)
(-1.36633 -0.051216 0)
(-1.50969 -0.0845576 0)
(-1.6918 -0.115807 0)
(-1.88266 -0.152153 0)
(-2.00696 -0.150248 0)
(-2.05335 -0.0956133 0)
(-2.15427 -0.0865787 0)
(-2.28647 -0.154875 0)
(-2.29998 -0.207013 0)
(-2.21606 -0.195135 0)
(-2.09567 -0.148894 0)
(-2.01427 -0.168042 0)
(-1.96134 -0.317035 0)
(-1.91012 -0.579279 0)
(-1.78852 -0.843983 0)
(-0.471778 0.000981646 0)
(-0.980029 -0.00556815 0)
(-1.15655 -0.0217958 0)
(-1.20338 -0.0556027 0)
(-1.30457 -0.102752 0)
(-1.49202 -0.141852 0)
(-1.69814 -0.171469 0)
(-1.88332 -0.199698 0)
(-1.98167 -0.178804 0)
(-2.05601 -0.12132 0)
(-2.20791 -0.118649 0)
(-2.31688 -0.166132 0)
(-2.29676 -0.192243 0)
(-2.18325 -0.163351 0)
(-2.0542 -0.125454 0)
(-1.95132 -0.162557 0)
(-1.85839 -0.331 0)
(-1.7249 -0.603263 0)
(-1.53626 -0.90086 0)
(-0.435943 -4.31686e-05 0)
(-0.893044 -0.0135592 0)
(-1.03516 -0.0320884 0)
(-1.03803 -0.0599333 0)
(-1.07811 -0.10936 0)
(-1.24356 -0.170688 0)
(-1.47317 -0.210031 0)
(-1.69466 -0.234234 0)
(-1.86392 -0.247545 0)
(-1.95019 -0.212114 0)
(-2.06961 -0.163038 0)
(-2.23043 -0.157593 0)
(-2.30441 -0.179784 0)
(-2.25914 -0.178392 0)
(-2.12576 -0.133838 0)
(-1.98759 -0.104871 0)
(-1.84667 -0.156416 0)
(-1.70156 -0.339952 0)
(-1.49804 -0.616702 0)
(-1.28831 -0.947389 0)
(-0.383646 -0.00110454 0)
(-0.772572 -0.020965 0)
(-0.878868 -0.0493053 0)
(-0.859868 -0.0761124 0)
(-0.859797 -0.11299 0)
(-0.970854 -0.178579 0)
(-1.20182 -0.250541 0)
(-1.45771 -0.285598 0)
(-1.68901 -0.299462 0)
(-1.83614 -0.291935 0)
(-1.93589 -0.252936 0)
(-2.08318 -0.213563 0)
(-2.2125 -0.19714 0)
(-2.2558 -0.197611 0)
(-2.18117 -0.167691 0)
(-2.03595 -0.113215 0)
(-1.87057 -0.0888012 0)
(-1.67932 -0.155071 0)
(-1.48129 -0.350015 0)
(-1.24977 -0.629896 0)
(-1.05492 -0.985753 0)
(-0.319472 -0.00180524 0)
(-0.630154 -0.0264649 0)
(-0.690998 -0.0632299 0)
(-0.652064 -0.101682 0)
(-0.641153 -0.132934 0)
(-0.715533 -0.178478 0)
(-0.90606 -0.259397 0)
(-1.18002 -0.337206 0)
(-1.45631 -0.36561 0)
(-1.68412 -0.361441 0)
(-1.81715 -0.334466 0)
(-1.943 -0.300507 0)
(-2.07648 -0.262753 0)
(-2.16282 -0.236453 0)
(-2.17069 -0.217238 0)
(-2.05782 -0.16414 0)
(-1.89459 -0.10482 0)
(-1.67821 -0.080953 0)
(-1.44143 -0.163885 0)
(-1.21502 -0.367121 0)
(-0.997245 -0.65345 0)
(-0.828553 -1.02055 0)
(-0.247245 -0.00256401 0)
(-0.477004 -0.0301706 0)
(-0.491097 -0.0711123 0)
(-0.421528 -0.12013 0)
(-0.40019 -0.165131 0)
(-0.47084 -0.199766 0)
(-0.629726 -0.253268 0)
(-0.879374 -0.346905 0)
(-1.17947 -0.427281 0)
(-1.4711 -0.446436 0)
(-1.67756 -0.417957 0)
(-1.81822 -0.380351 0)
(-1.95307 -0.348461 0)
(-2.04108 -0.305414 0)
(-2.08979 -0.274535 0)
(-2.04112 -0.235433 0)
(-1.88776 -0.170002 0)
(-1.68155 -0.105295 0)
(-1.40718 -0.0838042 0)
(-1.14934 -0.186561 0)
(-0.927582 -0.39824 0)
(-0.741447 -0.69459 0)
(-0.593772 -1.05837 0)
(-0.17013 -0.00268477 0)
(-0.313244 -0.0339468 0)
(-0.292771 -0.0772491 0)
(-0.194053 -0.126427 0)
(-0.147404 -0.184776 0)
(-0.212953 -0.235904 0)
(-0.375857 -0.27303 0)
(-0.599738 -0.332425 0)
(-0.883039 -0.436625 0)
(-1.20205 -0.519396 0)
(-1.48581 -0.524014 0)
(-1.66996 -0.473845 0)
(-1.83118 -0.431662 0)
(-1.94212 -0.390868 0)
(-1.98141 -0.342748 0)
(-1.98505 -0.307319 0)
(-1.86511 -0.250961 0)
(-1.66777 -0.18079 0)
(-1.39546 -0.107976 0)
(-1.08049 -0.0984777 0)
(-0.828932 -0.226415 0)
(-0.627614 -0.44976 0)
(-0.472915 -0.757729 0)
(-0.337699 -1.10667 0)
(-0.0972108 -0.00245189 0)
(-0.141858 -0.0340242 0)
(-0.0924345 -0.0835521 0)
(0.0138336 -0.131171 0)
(0.0867682 -0.184565 0)
(0.0470383 -0.253255 0)
(-0.116682 -0.310796 0)
(-0.354346 -0.348214 0)
(-0.613945 -0.411418 0)
(-0.915246 -0.526817 0)
(-1.23805 -0.610834 0)
(-1.48049 -0.596893 0)
(-1.66279 -0.537206 0)
(-1.83015 -0.486875 0)
(-1.8948 -0.428694 0)
(-1.89409 -0.378154 0)
(-1.83144 -0.33263 0)
(-1.64453 -0.264804 0)
(-1.39232 -0.189276 0)
(-1.05518 -0.110594 0)
(-0.729804 -0.1265 0)
(-0.496757 -0.284083 0)
(-0.312026 -0.523539 0)
(-0.184316 -0.845674 0)
(-0.0521096 -1.16913 0)
(-0.0367708 -0.00187182 0)
(0.0144184 -0.029318 0)
(0.107676 -0.0813978 0)
(0.204108 -0.135954 0)
(0.280527 -0.181826 0)
(0.273126 -0.241308 0)
(0.137806 -0.322261 0)
(-0.110047 -0.385919 0)
(-0.387632 -0.420408 0)
(-0.659219 -0.488669 0)
(-0.971582 -0.617195 0)
(-1.26217 -0.695818 0)
(-1.45139 -0.668839 0)
(-1.64422 -0.612413 0)
(-1.78556 -0.545974 0)
(-1.80082 -0.469403 0)
(-1.75907 -0.415217 0)
(-1.61882 -0.353607 0)
(-1.37484 -0.278306 0)
(-1.06152 -0.192573 0)
(-0.686901 -0.116982 0)
(-0.377946 -0.168705 0)
(-0.158213 -0.354989 0)
(0.0172677 -0.617564 0)
(0.125573 -0.956644 0)
(0.270444 -1.24513 0)
(0.0153554 -0.00231617 0)
(0.136209 -0.0232742 0)
(0.281726 -0.0674396 0)
(0.37742 -0.128661 0)
(0.432758 -0.179392 0)
(0.439545 -0.224374 0)
(0.344447 -0.293679 0)
(0.125528 -0.388532 0)
(-0.17125 -0.456499 0)
(-0.447043 -0.486936 0)
(-0.726501 -0.566233 0)
(-1.03752 -0.703851 0)
(-1.25344 -0.768926 0)
(-1.40486 -0.746689 0)
(-1.58824 -0.69823 0)
(-1.67643 -0.611661 0)
(-1.64838 -0.520975 0)
(-1.55787 -0.456141 0)
(-1.34602 -0.37491 0)
(-1.05046 -0.291419 0)
(-0.688183 -0.193381 0)
(-0.313696 -0.132862 0)
(-0.033269 -0.222294 0)
(0.18334 -0.432586 0)
(0.350381 -0.727349 0)
(0.4577 -1.08196 0)
(0.634405 -1.33207 0)
(0.0654791 -0.0027505 0)
(0.233116 -0.0212526 0)
(0.409214 -0.0519943 0)
(0.51898 -0.103923 0)
(0.550621 -0.164089 0)
(0.546053 -0.209948 0)
(0.477035 -0.257483 0)
(0.300757 -0.339417 0)
(0.0255272 -0.447776 0)
(-0.266005 -0.516121 0)
(-0.513399 -0.548467 0)
(-0.809159 -0.646584 0)
(-1.08864 -0.779201 0)
(-1.21266 -0.829826 0)
(-1.33948 -0.832606 0)
(-1.47441 -0.789728 0)
(-1.49591 -0.685618 0)
(-1.43189 -0.585797 0)
(-1.2883 -0.499575 0)
(-1.01738 -0.397525 0)
(-0.679395 -0.303921 0)
(-0.296233 -0.197337 0)
(0.0491847 -0.161186 0)
(0.307044 -0.281355 0)
(0.522704 -0.513995 0)
(0.682705 -0.846564 0)
(0.817059 -1.20914 0)
(1.02838 -1.4299 0)
(0.110327 -0.00253024 0)
(0.318898 -0.0197963 0)
(0.502708 -0.0443883 0)
(0.617832 -0.078063 0)
(0.637968 -0.129998 0)
(0.609326 -0.185157 0)
(0.546585 -0.228842 0)
(0.399213 -0.282559 0)
(0.155637 -0.376835 0)
(-0.132427 -0.49279 0)
(-0.367121 -0.558727 0)
(-0.588269 -0.608718 0)
(-0.896227 -0.726702 0)
(-1.10081 -0.835741 0)
(-1.15106 -0.884742 0)
(-1.24729 -0.919682 0)
(-1.30159 -0.877227 0)
(-1.25481 -0.765475 0)
(-1.1577 -0.659325 0)
(-0.959705 -0.54277 0)
(-0.646326 -0.420234 0)
(-0.284956 -0.315545 0)
(0.089595 -0.208316 0)
(0.399115 -0.199975 0)
(0.648932 -0.343761 0)
(0.857927 -0.602693 0)
(1.02089 -0.968241 0)
(1.20099 -1.32835 0)
(1.4261 -1.5437 0)
(0.143991 -0.00185719 0)
(0.388057 -0.0154698 0)
(0.579845 -0.0387842 0)
(0.68451 -0.0640231 0)
(0.698182 -0.0957079 0)
(0.646407 -0.144469 0)
(0.574953 -0.19453 0)
(0.447653 -0.241124 0)
(0.225086 -0.302177 0)
(-0.0591449 -0.403677 0)
(-0.309754 -0.516309 0)
(-0.466962 -0.584052 0)
(-0.680699 -0.669966 0)
(-0.964934 -0.797365 0)
(-1.06356 -0.873456 0)
(-1.07493 -0.939485 0)
(-1.1226 -0.997015 0)
(-1.08274 -0.950418 0)
(-0.975582 -0.844994 0)
(-0.837019 -0.73277 0)
(-0.586702 -0.583672 0)
(-0.254123 -0.443189 0)
(0.107878 -0.327036 0)
(0.456325 -0.227781 0)
(0.745622 -0.245363 0)
(0.995946 -0.411777 0)
(1.19659 -0.701449 0)
(1.37377 -1.0857 0)
(1.59078 -1.43809 0)
(1.80248 -1.676 0)
(0.164785 -0.00109879 0)
(0.430989 -0.00922643 0)
(0.639346 -0.0282682 0)
(0.735696 -0.0550864 0)
(0.738551 -0.076528 0)
(0.673021 -0.105995 0)
(0.580618 -0.149096 0)
(0.46346 -0.197906 0)
(0.2662 -0.251789 0)
(-0.0131185 -0.318939 0)
(-0.295695 -0.417881 0)
(-0.469961 -0.517114 0)
(-0.567728 -0.599606 0)
(-0.784022 -0.730308 0)
(-0.986357 -0.848613 0)
(-0.986091 -0.90163 0)
(-0.982439 -0.994129 0)
(-0.96173 -1.05583 0)
(-0.832551 -1.00579 0)
(-0.674914 -0.917543 0)
(-0.480325 -0.797344 0)
(-0.189239 -0.622782 0)
(0.139043 -0.468827 0)
(0.485244 -0.342034 0)
(0.809955 -0.254982 0)
(1.10024 -0.294757 0)
(1.34987 -0.490159 0)
(1.54466 -0.807899 0)
(1.73441 -1.19534 0)
(1.96245 -1.54291 0)
(2.1425 -1.82246 0)
(0.176412 -9.67125e-05 0)
(0.451549 -0.00439315 0)
(0.674837 -0.0153712 0)
(0.777853 -0.0406342 0)
(0.771118 -0.0665756 0)
(0.698627 -0.0853229 0)
(0.584933 -0.111269 0)
(0.459512 -0.148476 0)
(0.286216 -0.201288 0)
(0.0299369 -0.264484 0)
(-0.269974 -0.333949 0)
(-0.503094 -0.419512 0)
(-0.587713 -0.503209 0)
(-0.665505 -0.61718 0)
(-0.865923 -0.784764 0)
(-0.945985 -0.877643 0)
(-0.888848 -0.929445 0)
(-0.86663 -1.04281 0)
(-0.761324 -1.09213 0)
(-0.560661 -1.04608 0)
(-0.357222 -0.97792 0)
(-0.100186 -0.84779 0)
(0.210562 -0.661809 0)
(0.522299 -0.4994 0)
(0.850289 -0.363754 0)
(1.16658 -0.287137 0)
(1.46333 -0.350243 0)
(1.7066 -0.579391 0)
(1.89451 -0.917541 0)
(2.08348 -1.2968 0)
(2.29909 -1.64496 0)
(2.43667 -1.97526 0)
(0.185685 0.000102696 0)
(0.464408 -0.00252997 0)
(0.693287 -0.0069973 0)
(0.810991 -0.0237784 0)
(0.80633 -0.0516812 0)
(0.732757 -0.0767904 0)
(0.607085 -0.0945456 0)
(0.455984 -0.113944 0)
(0.287239 -0.147438 0)
(0.0638446 -0.20797 0)
(-0.221218 -0.281336 0)
(-0.493544 -0.347269 0)
(-0.642114 -0.412097 0)
(-0.654298 -0.489284 0)
(-0.742414 -0.64698 0)
(-0.88726 -0.827599 0)
(-0.855099 -0.892398 0)
(-0.784488 -0.959997 0)
(-0.720675 -1.07645 0)
(-0.524293 -1.10548 0)
(-0.273308 -1.07428 0)
(-0.0229163 -1.02079 0)
(0.286383 -0.884004 0)
(0.595909 -0.701353 0)
(0.89498 -0.533455 0)
(1.21472 -0.390915 0)
(1.53183 -0.323206 0)
(1.8241 -0.412775 0)
(2.05409 -0.673338 0)
(2.22661 -1.02438 0)
(2.40577 -1.38968 0)
(2.59135 -1.74512 0)
(2.67357 -2.13018 0)
(0.197037 0.000103485 0)
(0.483433 -0.00295097 0)
(0.710227 -0.00640443 0)
(0.838454 -0.0137984 0)
(0.84198 -0.033869 0)
(0.776728 -0.0627994 0)
(0.657624 -0.0905363 0)
(0.482747 -0.106754 0)
(0.287104 -0.117101 0)
(0.0755967 -0.148655 0)
(-0.170797 -0.219223 0)
(-0.439928 -0.301839 0)
(-0.642349 -0.359046 0)
(-0.695157 -0.402132 0)
(-0.673947 -0.490618 0)
(-0.772602 -0.690854 0)
(-0.829863 -0.857392 0)
(-0.734427 -0.906442 0)
(-0.66885 -0.992089 0)
(-0.540382 -1.0878 0)
(-0.264521 -1.09827 0)
(0.0213976 -1.08781 0)
(0.322053 -1.04078 0)
(0.660405 -0.907812 0)
(0.960756 -0.739075 0)
(1.26045 -0.565857 0)
(1.58263 -0.419048 0)
(1.8935 -0.36227 0)
(2.16592 -0.477627 0)
(2.37357 -0.764386 0)
(2.52665 -1.12182 0)
(2.69239 -1.47282 0)
(2.83028 -1.84827 0)
(2.84439 -2.28721 0)
(0.208865 0.000461148 0)
(0.513316 -0.00370414 0)
(0.739631 -0.00988333 0)
(0.871404 -0.0146704 0)
(0.876662 -0.0246559 0)
(0.814757 -0.0445176 0)
(0.719943 -0.0765006 0)
(0.553016 -0.110956 0)
(0.324561 -0.123711 0)
(0.0805771 -0.123646 0)
(-0.148123 -0.152256 0)
(-0.377701 -0.235078 0)
(-0.585108 -0.324669 0)
(-0.696694 -0.369876 0)
(-0.669425 -0.398038 0)
(-0.653049 -0.516417 0)
(-0.735707 -0.741514 0)
(-0.70165 -0.880161 0)
(-0.592245 -0.932565 0)
(-0.52582 -1.0234 0)
(-0.325144 -1.07649 0)
(-0.000309347 -1.07444 0)
(0.315495 -1.08019 0)
(0.662179 -1.0367 0)
(1.00748 -0.920416 0)
(1.30654 -0.766859 0)
(1.61876 -0.590297 0)
(1.94212 -0.443399 0)
(2.23184 -0.40106 0)
(2.47213 -0.539488 0)
(2.65104 -0.846027 0)
(2.78884 -1.20332 0)
(2.93377 -1.54809 0)
(3.00695 -1.95987 0)
(2.95603 -2.44757 0)
(0.217946 0.00140334 0)
(0.550968 -0.0032703 0)
(0.791471 -0.014709 0)
(0.92122 -0.0238692 0)
(0.927693 -0.0292886 0)
(0.846377 -0.0381039 0)
(0.762286 -0.0545738 0)
(0.635983 -0.0951549 0)
(0.416042 -0.13907 0)
(0.131481 -0.147687 0)
(-0.140089 -0.133757 0)
(-0.347066 -0.157723 0)
(-0.520079 -0.253791 0)
(-0.639539 -0.348281 0)
(-0.657403 -0.381038 0)
(-0.585342 -0.410083 0)
(-0.591323 -0.566292 0)
(-0.625808 -0.791209 0)
(-0.521709 -0.906907 0)
(-0.42412 -0.977464 0)
(-0.337166 -1.05169 0)
(-0.0786439 -1.05171 0)
(0.260507 -1.03958 0)
(0.604381 -1.04794 0)
(0.979515 -1.01059 0)
(1.32383 -0.918764 0)
(1.63616 -0.776031 0)
(1.96348 -0.600183 0)
(2.27621 -0.461877 0)
(2.53185 -0.438225 0)
(2.73299 -0.59619 0)
(2.88322 -0.91428 0)
(3.00903 -1.26515 0)
(3.1168 -1.6203 0)
(3.12541 -2.08188 0)
(3.0398 -2.61285 0)
(0.223228 0.00223057 0)
(0.59599 -0.00232858 0)
(0.870685 -0.0186156 0)
(1.00597 -0.0384278 0)
(1.0132 -0.047639 0)
(0.909251 -0.0530029 0)
(0.790797 -0.0521369 0)
(0.689235 -0.0660948 0)
(0.521663 -0.120676 0)
(0.24873 -0.176538 0)
(-0.0772093 -0.180295 0)
(-0.332463 -0.146669 0)
(-0.484057 -0.165956 0)
(-0.579412 -0.273774 0)
(-0.606419 -0.370552 0)
(-0.54124 -0.395528 0)
(-0.460565 -0.445792 0)
(-0.479813 -0.63298 0)
(-0.449524 -0.838311 0)
(-0.308446 -0.947359 0)
(-0.223015 -1.03906 0)
(-0.093228 -1.0767 0)
(0.193188 -1.02901 0)
(0.523844 -1.00098 0)
(0.885992 -0.995849 0)
(1.26587 -0.967137 0)
(1.61442 -0.897019 0)
(1.95147 -0.763427 0)
(2.28373 -0.596582 0)
(2.57097 -0.475984 0)
(2.78714 -0.474043 0)
(2.95 -0.64793 0)
(3.07444 -0.967616 0)
(3.18 -1.31096 0)
(3.24029 -1.69455 0)
(3.21246 -2.21238 0)
(3.13762 -2.78333 0)
(0.230129 0.00230815 0)
(0.651129 -0.00263676 0)
(0.979597 -0.0227109 0)
(1.14547 -0.053915 0)
(1.15208 -0.077753 0)
(1.04352 -0.0874642 0)
(0.866946 -0.0865826 0)
(0.729812 -0.0695099 0)
(0.595754 -0.0841197 0)
(0.383663 -0.155687 0)
(0.0675066 -0.226169 0)
(-0.257217 -0.220894 0)
(-0.451226 -0.164214 0)
(-0.534464 -0.180456 0)
(-0.556373 -0.295746 0)
(-0.497118 -0.389589 0)
(-0.372928 -0.418503 0)
(-0.302656 -0.505578 0)
(-0.30871 -0.709268 0)
(-0.220281 -0.887925 0)
(-0.0773688 -1.00588 0)
(0.0146972 -1.10764 0)
(0.199664 -1.10199 0)
(0.484786 -1.02018 0)
(0.797627 -0.965739 0)
(1.15576 -0.935719 0)
(1.52677 -0.910501 0)
(1.89102 -0.851728 0)
(2.24915 -0.731533 0)
(2.56906 -0.585279 0)
(2.81999 -0.487192 0)
(3.00029 -0.5075 0)
(3.13079 -0.695219 0)
(3.22987 -1.00947 0)
(3.30267 -1.35295 0)
(3.3262 -1.77341 0)
(3.30138 -2.34386 0)
(3.26332 -2.94504 0)
(0.242064 0.00225473 0)
(0.721416 -0.00527336 0)
(1.11305 -0.0283052 0)
(1.33892 -0.0673556 0)
(1.36482 -0.111002 0)
(1.25826 -0.137389 0)
(1.05529 -0.147769 0)
(0.834974 -0.131639 0)
(0.667706 -0.0967703 0)
(0.491696 -0.113768 0)
(0.238946 -0.204728 0)
(-0.089999 -0.289325 0)
(-0.355813 -0.268743 0)
(-0.465508 -0.19164 0)
(-0.492833 -0.207387 0)
(-0.456264 -0.321371 0)
(-0.327123 -0.407344 0)
(-0.17471 -0.454885 0)
(-0.111915 -0.58338 0)
(-0.0782238 -0.789306 0)
(0.0445276 -0.948823 0)
(0.163191 -1.08046 0)
(0.287174 -1.17109 0)
(0.519807 -1.13049 0)
(0.787924 -1.02772 0)
(1.07783 -0.937674 0)
(1.41237 -0.876462 0)
(1.77727 -0.840536 0)
(2.16211 -0.785623 0)
(2.52282 -0.686817 0)
(2.81135 -0.568756 0)
(3.02407 -0.494264 0)
(3.17815 -0.536526 0)
(3.28321 -0.738939 0)
(3.35544 -1.0509 0)
(3.39375 -1.40349 0)
(3.40432 -1.85427 0)
(3.40104 -2.45934 0)
(3.39882 -3.0772 0)
(0.259443 0.00167508 0)
(0.804609 -0.00751689 0)
(1.26043 -0.0349012 0)
(1.55723 -0.0766973 0)
(1.63487 -0.134491 0)
(1.54028 -0.187602 0)
(1.34697 -0.218999 0)
(1.07495 -0.228514 0)
(0.820671 -0.191815 0)
(0.610371 -0.140052 0)
(0.394226 -0.160131 0)
(0.118256 -0.271741 0)
(-0.172691 -0.364375 0)
(-0.335849 -0.325048 0)
(-0.369079 -0.237022 0)
(-0.363449 -0.253452 0)
(-0.283199 -0.354102 0)
(-0.113568 -0.43103 0)
(0.0411205 -0.506308 0)
(0.113319 -0.669329 0)
(0.198381 -0.869601 0)
(0.322824 -1.02681 0)
(0.415514 -1.16364 0)
(0.584843 -1.22202 0)
(0.838545 -1.16206 0)
(1.08642 -1.04481 0)
(1.35355 -0.916944 0)
(1.66292 -0.82021 0)
(2.02972 -0.759442 0)
(2.42317 -0.706149 0)
(2.76314 -0.636262 0)
(3.00915 -0.549061 0)
(3.19231 -0.495033 0)
(3.32921 -0.560577 0)
(3.41423 -0.783246 0)
(3.45894 -1.10402 0)
(3.475 -1.46543 0)
(3.48406 -1.92841 0)
(3.49854 -2.54505 0)
(3.53305 -3.17114 0)
(0.285547 0.000606833 0)
(0.897522 -0.0102043 0)
(1.41221 -0.03965 0)
(1.76534 -0.0822397 0)
(1.91131 -0.141808 0)
(1.8486 -0.216044 0)
(1.67306 -0.27684 0)
(1.41663 -0.317633 0)
(1.10195 -0.324826 0)
(0.817871 -0.268788 0)
(0.569839 -0.202693 0)
(0.328681 -0.22815 0)
(0.0637989 -0.357427 0)
(-0.140267 -0.448007 0)
(-0.190817 -0.393437 0)
(-0.175317 -0.308296 0)
(-0.151126 -0.322697 0)
(-0.0439466 -0.400263 0)
(0.13132 -0.470365 0)
(0.273609 -0.57238 0)
(0.370675 -0.754068 0)
(0.495664 -0.951053 0)
(0.595241 -1.12172 0)
(0.685363 -1.24418 0)
(0.89027 -1.26247 0)
(1.13393 -1.19372 0)
(1.36562 -1.06211 0)
(1.6193 -0.901927 0)
(1.92091 -0.766698 0)
(2.28719 -0.674356 0)
(2.66348 -0.622738 0)
(2.96425 -0.585914 0)
(3.17231 -0.527619 0)
(3.33954 -0.490698 0)
(3.46444 -0.584583 0)
(3.53029 -0.835848 0)
(3.54996 -1.1728 0)
(3.55441 -1.53264 0)
(3.55996 -1.99014 0)
(3.5968 -2.6014 0)
(3.6839 -3.23416 0)
(0.318808 -0.000431267 0)
(0.999682 -0.0130349 0)
(1.57166 -0.043416 0)
(1.95111 -0.0866577 0)
(2.15343 -0.138161 0)
(2.13705 -0.216694 0)
(1.97554 -0.301099 0)
(1.7498 -0.370188 0)
(1.45334 -0.423307 0)
(1.1219 -0.42923 0)
(0.8237 -0.360068 0)
(0.562301 -0.285404 0)
(0.325637 -0.318881 0)
(0.111145 -0.458715 0)
(0.0192344 -0.537295 0)
(0.0588173 -0.478294 0)
(0.0977765 -0.408065 0)
(0.136981 -0.416316 0)
(0.249671 -0.468681 0)
(0.403247 -0.533549 0)
(0.529262 -0.651875 0)
(0.650538 -0.834606 0)
(0.782743 -1.03745 0)
(0.855912 -1.22427 0)
(0.971887 -1.31348 0)
(1.18625 -1.2988 0)
(1.40308 -1.22484 0)
(1.62592 -1.07673 0)
(1.88581 -0.889408 0)
(2.19587 -0.718133 0)
(2.54514 -0.596618 0)
(2.87864 -0.548502 0)
(3.13452 -0.542875 0)
(3.32148 -0.508046 0)
(3.48383 -0.490075 0)
(3.59532 -0.619342 0)
(3.63665 -0.905453 0)
(3.63569 -1.25259 0)
(3.63122 -1.60163 0)
(3.64628 -2.04297 0)
(3.72498 -2.64173 0)
(3.88013 -3.27777 0)
(0.347713 -0.000194924 0)
(1.09909 -0.0134908 0)
(1.74305 -0.0461425 0)
(2.14053 -0.0930416 0)
(2.35138 -0.13841 0)
(2.39109 -0.200856 0)
(2.24223 -0.294291 0)
(2.0199 -0.382216 0)
(1.76226 -0.460162 0)
(1.44919 -0.526309 0)
(1.12793 -0.534135 0)
(0.844769 -0.460543 0)
(0.607233 -0.384884 0)
(0.408667 -0.428993 0)
(0.27188 -0.569716 0)
(0.288437 -0.631619 0)
(0.382014 -0.582325 0)
(0.433936 -0.533597 0)
(0.48508 -0.535003 0)
(0.582756 -0.567063 0)
(0.703308 -0.625046 0)
(0.811245 -0.743799 0)
(0.935553 -0.916968 0)
(1.04071 -1.13215 0)
(1.11267 -1.3194 0)
(1.2653 -1.37169 0)
(1.46635 -1.34021 0)
(1.66213 -1.25919 0)
(1.88839 -1.09133 0)
(2.16935 -0.879394 0)
(2.48603 -0.681828 0)
(2.79965 -0.540858 0)
(3.07888 -0.498228 0)
(3.29855 -0.516833 0)
(3.48114 -0.499004 0)
(3.63935 -0.507093 0)
(3.7276 -0.678954 0)
(3.7371 -0.994926 0)
(3.72363 -1.33934 0)
(3.72721 -1.67639 0)
(3.77967 -2.09908 0)
(3.91205 -2.68104 0)
(4.13629 -3.3092 0)
(0.361876 0.000176043 0)
(1.17247 -0.00891381 0)
(1.90677 -0.041969 0)
(2.35899 -0.0980951 0)
(2.54948 -0.150946 0)
(2.61039 -0.194633 0)
(2.50033 -0.272178 0)
(2.26278 -0.372258 0)
(1.9998 -0.459213 0)
(1.7212 -0.544194 0)
(1.41357 -0.62101 0)
(1.13128 -0.633816 0)
(0.896872 -0.564254 0)
(0.720194 -0.494723 0)
(0.581641 -0.55205 0)
(0.533698 -0.683642 0)
(0.632658 -0.732061 0)
(0.750384 -0.704268 0)
(0.817261 -0.678834 0)
(0.870033 -0.679163 0)
(0.940661 -0.696553 0)
(1.02819 -0.744949 0)
(1.11126 -0.850772 0)
(1.20771 -1.01139 0)
(1.27753 -1.23285 0)
(1.3767 -1.40006 0)
(1.55328 -1.42659 0)
(1.73986 -1.39276 0)
(1.93254 -1.30213 0)
(2.17573 -1.11208 0)
(2.47635 -0.876754 0)
(2.78231 -0.666643 0)
(3.0525 -0.519453 0)
(3.28553 -0.483588 0)
(3.48359 -0.51714 0)
(3.66539 -0.512165 0)
(3.80579 -0.555028 0)
(3.85536 -0.768495 0)
(3.84178 -1.09885 0)
(3.8407 -1.43762 0)
(3.88297 -1.76572 0)
(3.98558 -2.17078 0)
(4.16821 -2.7258 0)
(4.4443 -3.33422 0)
(0.363484 0.00045108 0)
(1.20782 -0.00293989 0)
(2.02499 -0.0278714 0)
(2.58208 -0.0879428 0)
(2.7901 -0.163308 0)
(2.82348 -0.212715 0)
(2.75802 -0.260381 0)
(2.53316 -0.353742 0)
(2.23971 -0.454351 0)
(1.94619 -0.537612 0)
(1.65459 -0.625488 0)
(1.37561 -0.707211 0)
(1.1563 -0.726254 0)
(1.00075 -0.66585 0)
(0.903336 -0.609842 0)
(0.831219 -0.679935 0)
(0.868322 -0.79502 0)
(1.01359 -0.838513 0)
(1.14332 -0.837349 0)
(1.22746 -0.836635 0)
(1.26778 -0.846761 0)
(1.31063 -0.852648 0)
(1.36181 -0.889695 0)
(1.41262 -0.97681 0)
(1.46379 -1.12552 0)
(1.51863 -1.3354 0)
(1.64949 -1.4712 0)
(1.83478 -1.4857 0)
(2.02135 -1.45466 0)
(2.22935 -1.35532 0)
(2.4969 -1.14014 0)
(2.80135 -0.889247 0)
(3.07757 -0.681 0)
(3.30965 -0.536607 0)
(3.51491 -0.507451 0)
(3.70053 -0.547645 0)
(3.86513 -0.556171 0)
(3.96397 -0.634303 0)
(3.98044 -0.878295 0)
(3.98049 -1.21498 0)
(4.02625 -1.55377 0)
(4.12071 -1.87666 0)
(4.26547 -2.26108 0)
(4.48297 -2.77888 0)
(0.361756 0.000129614 0)
(1.21232 0.00119979 0)
(2.07573 -0.00934655 0)
(2.74582 -0.0557049 0)
(3.04541 -0.1468 0)
(3.06216 -0.232742 0)
(2.99719 -0.277234 0)
(2.83114 -0.338847 0)
(2.53674 -0.446828 0)
(2.20686 -0.546635 0)
(1.89156 -0.624354 0)
(1.59976 -0.70953 0)
(1.37305 -0.787841 0)
(1.23108 -0.812677 0)
(1.1712 -0.762365 0)
(1.14545 -0.727762 0)
(1.13654 -0.804597 0)
(1.23872 -0.901137 0)
(1.40012 -0.947699 0)
(1.54404 -0.971271 0)
(1.63848 -1.00219 0)
(1.66116 -1.03052 0)
(1.67507 -1.02954 0)
(1.68412 -1.05449 0)
(1.70206 -1.12242 0)
(1.71908 -1.25934 0)
(1.78149 -1.43952 0)
(1.93014 -1.54323 0)
(2.1207 -1.55173 0)
(2.32216 -1.52309 0)
(2.55591 -1.41253 0)
(2.84392 -1.17614 0)
(3.13401 -0.925243 0)
(3.37182 -0.730186 0)
(3.57724 -0.588316 0)
(3.76606 -0.563796 0)
(3.93291 -0.607526 0)
(4.0516 -0.628096 0)
(4.1086 -0.733781 0)
(4.13468 -0.998351 0)
(4.18993 -1.3429 0)
(4.29604 -1.68775 0)
(4.43209 -2.00755 0)
(4.60409 -2.36727 0)
(0.364802 -0.000221565 0)
(1.19967 0.00148156 0)
(2.07096 0.00477612 0)
(2.80062 -0.014606 0)
(3.23381 -0.0879967 0)
(3.29962 -0.208773 0)
(3.21144 -0.295919 0)
(3.08754 -0.342527 0)
(2.85932 -0.426386 0)
(2.53446 -0.550677 0)
(2.18668 -0.652344 0)
(1.86156 -0.724714 0)
(1.5937 -0.799266 0)
(1.43516 -0.867321 0)
(1.37763 -0.894583 0)
(1.40706 -0.855745 0)
(1.43131 -0.847139 0)
(1.47524 -0.921765 0)
(1.60861 -1.00204 0)
(1.77231 -1.052 0)
(1.93398 -1.09715 0)
(2.02716 -1.16981 0)
(2.03722 -1.22192 0)
(2.01273 -1.22254 0)
(1.98612 -1.23281 0)
(1.98109 -1.28568 0)
(1.98999 -1.40689 0)
(2.06737 -1.54995 0)
(2.22598 -1.62517 0)
(2.42457 -1.62649 0)
(2.64457 -1.5951 0)
(2.90669 -1.46962 0)
(3.2038 -1.22477 0)
(3.46812 -0.991391 0)
(3.67081 -0.812422 0)
(3.85408 -0.668068 0)
(4.02131 -0.645199 0)
(4.14653 -0.68963 0)
(4.21951 -0.719434 0)
(4.27491 -0.845591 0)
(4.35464 -1.12449 0)
(4.47876 -1.47779 0)
(4.63109 -1.83383 0)
(4.79466 -2.1502 0)
(4.98048 -2.48415 0)
(0.369507 -0.000198436 0)
(1.18697 0.000774075 0)
(2.03536 0.00937657 0)
(2.76906 0.013878 0)
(3.28835 -0.0147669 0)
(3.47217 -0.122723 0)
(3.38824 -0.262415 0)
(3.25753 -0.345576 0)
(3.10354 -0.402876 0)
(2.85527 -0.51431 0)
(2.53128 -0.660464 0)
(2.18877 -0.769922 0)
(1.87469 -0.838365 0)
(1.66034 -0.893883 0)
(1.57435 -0.948595 0)
(1.60173 -0.97302 0)
(1.69295 -0.95115 0)
(1.74807 -0.96643 0)
(1.82329 -1.03322 0)
(1.95407 -1.09865 0)
(2.12049 -1.14363 0)
(2.29498 -1.21106 0)
(2.38195 -1.33176 0)
(2.37714 -1.41572 0)
(2.31654 -1.42507 0)
(2.27432 -1.41951 0)
(2.26058 -1.46266 0)
(2.28057 -1.56366 0)
(2.3777 -1.67122 0)
(2.54783 -1.72126 0)
(2.75237 -1.71334 0)
(2.98956 -1.66921 0)
(3.27425 -1.52919 0)
(3.56806 -1.29166 0)
(3.80168 -1.08923 0)
(3.97475 -0.923417 0)
(4.12952 -0.77264 0)
(4.25418 -0.744987 0)
(4.33793 -0.788174 0)
(4.40774 -0.826548 0)
(4.50153 -0.966432 0)
(4.6475 -1.25041 0)
(4.8224 -1.61385 0)
(5.00269 -1.98204 0)
(5.18562 -2.29517 0)
(0.365479 0.000785597 0)
(1.18102 0.00163221 0)
(2.00243 0.0060227 0)
(2.71871 0.0202984 0)
(3.2425 0.0269648 0)
(3.53882 -0.0170396 0)
(3.51776 -0.158388 0)
(3.36218 -0.301667 0)
(3.21788 -0.379717 0)
(3.05783 -0.451884 0)
(2.82132 -0.593999 0)
(2.52608 -0.768378 0)
(2.21403 -0.893368 0)
(1.94283 -0.957691 0)
(1.80152 -0.990609 0)
(1.78782 -1.0298 0)
(1.88879 -1.04982 0)
(2.00969 -1.05185 0)
(2.08246 -1.08542 0)
(2.1594 -1.1443 0)
(2.27021 -1.19083 0)
(2.4432 -1.22034 0)
(2.61851 -1.31273 0)
(2.69615 -1.48432 0)
(2.66966 -1.60961 0)
(2.59986 -1.62884 0)
(2.56191 -1.61327 0)
(2.55128 -1.64911 0)
(2.59203 -1.72693 0)
(2.71602 -1.80301 0)
(2.89746 -1.83524 0)
(3.10546 -1.81409 0)
(3.35841 -1.74844 0)
(3.6532 -1.59784 0)
(3.92963 -1.38122 0)
(4.13054 -1.21432 0)
(4.27259 -1.05909 0)
(4.38449 -0.896473 0)
(4.46745 -0.862025 0)
(4.54927 -0.903347 0)
(4.6524 -0.948335 0)
(4.79669 -1.08993 0)
(4.98987 -1.37159 0)
(5.19184 -1.74555 0)
(5.39114 -2.12363 0)
(5.59044 -2.43573 0)
(0.351211 0.0019526 0)
(1.1736 0.00528448 0)
(1.99821 0.00188521 0)
(2.70268 0.00748583 0)
(3.2131 0.0249085 0)
(3.53572 0.0329634 0)
(3.62173 -0.0349785 0)
(3.46348 -0.197164 0)
(3.27215 -0.331669 0)
(3.12178 -0.401784 0)
(2.97018 -0.487535 0)
(2.76421 -0.660617 0)
(2.51985 -0.866459 0)
(2.26193 -1.01334 0)
(2.06672 -1.07214 0)
(2.00205 -1.08481 0)
(2.0603 -1.10585 0)
(2.21083 -1.12689 0)
(2.34204 -1.15709 0)
(2.41714 -1.20678 0)
(2.47156 -1.25998 0)
(2.56804 -1.27857 0)
(2.74592 -1.28768 0)
(2.90603 -1.40663 0)
(2.96563 -1.63064 0)
(2.93012 -1.79988 0)
(2.88236 -1.82969 0)
(2.85671 -1.81492 0)
(2.85738 -1.84228 0)
(2.927 -1.89364 0)
(3.07901 -1.94441 0)
(3.26854 -1.96698 0)
(3.48578 -1.92766 0)
(3.74979 -1.83819 0)
(4.03509 -1.684 0)
(4.28041 -1.49381 0)
(4.44367 -1.36165 0)
(4.54664 -1.20862 0)
(4.62416 -1.03622 0)
(4.70292 -0.997242 0)
(4.81431 -1.03409 0)
(4.95919 -1.07808 0)
(5.1412 -1.21199 0)
(5.35696 -1.48886 0)
(5.57275 -1.87029 0)
(5.78745 -2.25476 0)
(6.00365 -2.56761 0)
(0.335051 0.00228597 0)
(1.15921 0.00785033 0)
(2.01854 0.00440761 0)
(2.73458 -0.00776745 0)
(3.25645 -0.00352291 0)
(3.56884 0.014297 0)
(3.72172 0.0174601 0)
(3.63452 -0.0796554 0)
(3.39427 -0.248309 0)
(3.17074 -0.365819 0)
(3.00983 -0.421434 0)
(2.86847 -0.514515 0)
(2.70187 -0.713172 0)
(2.51811 -0.950258 0)
(2.3352 -1.11935 0)
(2.23355 -1.17305 0)
(2.24263 -1.16936 0)
(2.3655 -1.17235 0)
(2.54212 -1.20399 0)
(2.67649 -1.26417 0)
(2.73452 -1.33469 0)
(2.76207 -1.38157 0)
(2.86307 -1.36263 0)
(3.03453 -1.35516 0)
(3.16438 -1.50346 0)
(3.20346 -1.77637 0)
(3.18582 -1.98157 0)
(3.1684 -2.02785 0)