/*--------------------------------*- C++ -*----------------------------------*\
| =========                 |                                                 |
| \\      /  F ield         | OpenFOAM: The Open Source CFD Toolbox           |
|  \\    /   O peration     | Version:  5.x                                   |
|   \\  /    A nd           | Web:      www.OpenFOAM.org                      |
|    \\/     M anipulation  |                                                 |
\*---------------------------------------------------------------------------*/
FoamFile
{
    version     2.0;
    format      ascii;
    class       volVectorField;
    location    "0.1";
    object      Urom;
}
// * * * * * * * * * * * * * * * * * * * * * * * * * * * * * * * * * * * * * //

dimensions      [0 1 -1 0 0 0 0];

internalField   nonuniform List<vector> 
17568
(
(17.2724 0.614876 0)
(13.1878 0.558474 0)
(20.2333 1.08261 0)
(9.51494 0.282787 0)
(20.1541 1.35751 0)
(20.1095 0.789747 0)
(6.89639 0.0989128 0)
(18.9724 1.11456 0)
(20.9092 1.21398 0)
(20.0422 0.606984 0)
(5.47471 0.00741491 0)
(17.2275 0.806601 0)
(21.2594 1.14434 0)
(20.699 1.05404 0)
(20.0314 0.482194 0)
(4.73872 -0.0200482 0)
(15.5517 0.512404 0)
(20.9945 0.969894 0)
(21.311 1.05471 0)
(20.5244 0.930505 0)
(20.0234 0.384988 0)
(4.30768 -0.01613 0)
(14.1435 0.304326 0)
(20.3723 0.75967 0)
(21.6028 0.949707 0)
(21.0677 0.968962 0)
(20.4044 0.812534 0)
(20.017 0.308853 0)
(4.01748 -0.00758393 0)
(13.0019 0.189544 0)
(19.6113 0.580641 0)
(21.6162 0.811625 0)
(21.4301 0.888672 0)
(20.8654 0.882668 0)
(20.3123 0.702551 0)
(20.0125 0.249985 0)
(3.79322 -0.00168385 0)
(12.0887 0.13291 0)
(18.8231 0.455387 0)
(21.4511 0.679442 0)
(21.6155 0.78388 0)
(21.2013 0.82122 0)
(20.703 0.798623 0)
(20.2415 0.604333 0)
(20.0094 0.204565 0)
(3.60289 0.00119353 0)
(11.3532 0.104061 0)
(18.0642 0.371231 0)
(21.1813 0.578318 0)
(21.6829 0.68131 0)
(21.3996 0.736643 0)
(21.0095 0.757755 0)
(20.5696 0.719457 0)
(20.1878 0.518432 0)
(20.0073 0.169268 0)
(3.43596 0.0021269 0)
(10.7475 0.0868891 0)
(17.3562 0.310951 0)
(20.8548 0.50526 0)
(21.6757 0.600429 0)
(21.5126 0.653642 0)
(21.1987 0.689849 0)
(20.848 0.699674 0)
(20.4609 0.645273 0)
(20.1471 0.444293 0)
(20.0057 0.1415 0)
(3.28965 0.00216259 0)
(10.2364 0.0745606 0)
(16.7033 0.264604 0)
(20.4979 0.449101 0)
(21.6211 0.541956 0)
(21.5787 0.585995 0)
(21.3125 0.622375 0)
(21.0285 0.646309 0)
(20.7108 0.645203 0)
(20.3731 0.576069 0)
(20.1161 0.380937 0)
(20.0045 0.119343 0)
(3.16203 0.00193273 0)
(9.79733 0.0645594 0)
(16.1037 0.227541 0)
(20.124 0.402444 0)
(21.533 0.497436 0)
(21.6187 0.536399 0)
(21.389 0.564752 0)
(21.1391 0.59163 0)
(20.8824 0.604874 0)
(20.5948 0.59313 0)
(20.3025 0.512141 0)
(20.0926 0.327128 0)
(20.0036 0.1014 0)
(3.05065 0.00168575 0)
(9.41559 0.056149 0)
(15.5544 0.197265 0)
(19.7411 0.362024 0)
(21.417 0.460082 0)
(21.6413 0.499169 0)
(21.4479 0.520468 0)
(21.2151 0.542815 0)
(20.9905 0.560784 0)
(20.7565 0.564953 0)
(20.497 0.543146 0)
(20.246 0.453743 0)
(20.0744 0.281578 0)
(20.0029 0.086669 0)
(2.95297 0.00147135 0)
(9.08078 0.049108 0)
(15.0525 0.17224 0)
(19.356 0.326396 0)
(21.2762 0.42678 0)
(21.6486 0.468456 0)
(21.4976 0.486647 0)
(21.2756 0.503004 0)
(21.0653 0.520026 0)
(20.862 0.529889 0)
(20.648 0.526458 0)
(20.4151 0.495315 0)
(20.2008 0.400968 0)
(20.0603 0.243056 0)
(20.0024 0.074437 0)
(2.86675 0.00128173 0)
(8.78497 0.0432384 0)
(14.5946 0.151432 0)
(18.9746 0.294801 0)
(21.114 0.396334 0)
(21.6399 0.441256 0)
(21.5406 0.458922 0)
(21.3285 0.471422 0)
(21.1252 0.484841 0)
(20.9358 0.496422 0)
(20.7505 0.499363 0)
(20.5546 0.489279 0)
(20.3467 0.449846 0)
(20.1645 0.353733 0)
(20.0492 0.210418 0)
(20.002 0.0641844 0)
(2.79024 0.00110401 0)
(8.52189 0.0383035 0)
(14.1772 0.134021 0)
(18.6017 0.266764 0)
(20.9346 0.368221 0)
(21.6156 0.416377 0)
(21.5764 0.434651 0)
(21.3768 0.445261 0)
(21.1777 0.455606 0)
(20.9951 0.46601 0)
(20.8231 0.472342 0)
(20.6535 0.469414 0)
(20.4741 0.453291 0)
(20.2899 0.406982 0)
(20.1355 0.311765 0)
(20.0405 0.18266 0)
(20.0016 0.0555223 0)
(2.72217 0.00093543 0)
(8.28669 0.0340812 0)
(13.7963 0.119306 0)
(18.2407 0.24188 0)
(20.742 0.342182 0)
(21.5761 0.39327 0)
(21.6045 0.412713 0)
(21.4212 0.422376 0)
(21.2256 0.43088 0)
(21.047 0.439425 0)
(20.8816 0.446613 0)
(20.7249 0.448017 0)
(20.5689 0.440084 0)
(20.4051 0.41844 0)
(20.2427 0.366916 0)
(20.1122 0.274656 0)
(20.0335 0.158933 0)
(20.0013 0.0481524 0)
(2.66152 0.000781079 0)
(8.07559 0.0303981 0)
(13.4486 0.106706 0)
(17.8937 0.219742 0)
(20.5401 0.318044 0)
(21.5228 0.371611 0)
(21.6251 0.392558 0)
(21.4616 0.401757 0)
(21.2698 0.409086 0)
(21.094 0.416281 0)
(20.933 0.422879 0)
(20.7824 0.426684 0)
(20.6388 0.42361 0)
(20.495 0.411367 0)
(20.346 0.384769 0)
(20.2038 0.329769 0)
(20.0933 0.241926 0)
(20.0278 0.138543 0)
(20.0011 0.0418421 0)
(2.60756 0.000629981 0)
(7.88567 0.0271342 0)
(13.1308 0.0957592 0)
(17.562 0.199957 0)
(20.332 0.295629 0)
(21.4574 0.351191 0)
(21.638 0.37381 0)
(21.4983 0.382908 0)
(21.3109 0.38934 0)
(21.1371 0.395614 0)
(20.9793 0.401452 0)
(20.8331 0.405893 0)
(20.6952 0.406281 0)
(20.5631 0.399265 0)
(20.4306 0.383258 0)
(20.2957 0.352393 0)
(20.1715 0.295577 0)
(20.078 0.213073 0)
(20.0233 0.120931 0)
(20.0009 0.0364065 0)
(2.55973 0.000485326 0)
(7.71454 0.024182 0)
(12.8402 0.086107 0)
(17.2467 0.182158 0)
(20.1206 0.274755 0)
(21.3812 0.331833 0)
(21.6437 0.356189 0)
(21.5318 0.365476 0)
(21.3497 0.371214 0)
(21.1772 0.376716 0)
(21.0216 0.381973 0)
(20.8789 0.386301 0)
(20.7451 0.38842 0)
(20.6185 0.385514 0)
(20.4965 0.375099 0)
(20.3744 0.355775 0)
(20.2527 0.321454 0)
(20.1447 0.264281 0)
(20.0654 0.187618 0)
(20.0196 0.105638 0)
(20.0008 0.0316972 0)
(2.51759 0.000291558 0)
(7.56043 0.0214767 0)
(12.5741 0.0774689 0)
(16.948 0.166036 0)
(19.9082 0.255233 0)
(21.2959 0.313382 0)
(21.6424 0.33947 0)
(21.5619 0.349182 0)
(21.3864 0.354411 0)
(21.215 0.35922 0)
(21.0608 0.363964 0)
(20.9205 0.36807 0)
(20.7903 0.370764 0)
(20.6673 0.370479 0)
(20.5506 0.364519 0)
(20.4377 0.351194 0)
(20.3254 0.328968 0)
(20.2163 0.292084 0)
(20.1225 0.235757 0)
(20.0552 0.165121 0)
(20.0164 0.0922911 0)
(20.0007 0.0275935 0)
(2.48095 0.000148121 0)
(7.42182 0.0189273 0)
(12.3308 0.0696157 0)
(16.666 0.151297 0)
(19.697 0.236898 0)
(21.2027 0.295686 0)
(21.6342 0.323462 0)
(21.5889 0.333783 0)
(21.4215 0.338684 0)
(21.2511 0.342887 0)
(21.0976 0.347124 0)
(20.959 0.350992 0)
(20.8314 0.353844 0)
(20.7118 0.354815 0)
(20.5983 0.352123 0)
(20.4903 0.34342 0)
(20.3858 0.32761 0)
(20.2828 0.302905 0)
(20.1854 0.264377 0)
(20.1041 0.209833 0)
(20.0468 0.145194 0)
(20.0139 0.0805852 0)
(20.0006 0.023997 0)
(2.4495 -2.68564e-05 0)
(7.2979 0.0164504 0)
(12.1083 0.0623913 0)
(16.4008 0.137714 0)
(19.4886 0.219567 0)
(21.1032 0.278624 0)
(21.62 0.307987 0)
(21.6129 0.319082 0)
(21.4553 0.323815 0)
(21.286 0.327514 0)
(21.1327 0.331264 0)
(20.995 0.33485 0)
(20.8693 0.337735 0)
(20.7524 0.339266 0)
(20.6419 0.338454 0)
(20.5369 0.333431 0)
(20.4368 0.322323 0)
(20.34 0.304394 0)
(20.2458 0.277677 0)
(20.1592 0.238381 0)
(20.0888 0.186306 0)
(20.0397 0.12749 0)
(20.0119 0.070266 0)
(20.0005 0.0208265 0)
(2.42361 -0.000251497 0)
(7.18737 0.0140781 0)
(11.9057 0.0555604 0)
(16.152 0.125019 0)
(19.2846 0.203106 0)
(20.9989 0.262051 0)
(21.5999 0.2929 0)
(21.6339 0.304885 0)
(21.4879 0.309616 0)
(21.32 0.31291 0)
(21.1667 0.316223 0)
(21.0293 0.319497 0)
(20.9047 0.322329 0)
(20.7898 0.324157 0)
(20.6821 0.324316 0)
(20.5796 0.321697 0)
(20.4821 0.314487 0)
(20.3892 0.301316 0)
(20.2997 0.281599 0)
(20.214 0.253378 0)
(20.1371 0.214098 0)
(20.076 0.164962 0)
(20.034 0.111704 0)
(20.0102 0.0611223 0)
(20.0004 0.0180153 0)
(2.40281 -0.00047018 0)
(7.09071 0.0116423 0)
(11.7213 0.0490199 0)
(15.9197 0.113073 0)
(19.086 0.187305 0)
(20.891 0.245884 0)
(21.5746 0.278045 0)
(21.6518 0.291033 0)
(21.5194 0.295905 0)
(21.3535 0.298907 0)
(21.1997 0.301841 0)
(21.0623 0.304812 0)
(20.9384 0.307517 0)
(20.8248 0.309512 0)
(20.7191 0.310233 0)
(20.6191 0.308989 0)
(20.5238 0.304579 0)
(20.4331 0.295383 0)
(20.3468 0.280468 0)
(20.2642 0.259284 0)
(20.1865 0.230084 0)
(20.1184 0.19149 0)
(20.0653 0.145581 0)
(20.0293 0.0975756 0)
(20.0088 0.0529768 0)
(20.0004 0.0155072 0)
(2.38842 -0.000766045 0)
(7.00626 0.00913603 0)
(11.5555 0.0426162 0)
(15.7032 0.101568 0)
(18.8943 0.172076 0)
(20.7807 0.229937 0)
(21.5446 0.263317 0)
(21.667 0.277349 0)
(21.55 0.28252 0)
(21.3865 0.285339 0)
(21.2324 0.28797 0)
(21.0946 0.290664 0)
(20.9708 0.293214 0)
(20.8579 0.295271 0)
(20.7536 0.296366 0)
(20.6557 0.295948 0)
(20.5626 0.293287 0)
(20.4737 0.287153 0)
(20.3893 0.276204 0)
(20.3091 0.259841 0)
(20.233 0.237514 0)
(20.1627 0.207855 0)
(20.1026 0.170486 0)
(20.0564 0.127958 0)
(20.0252 0.0848772 0)
(20.0076 0.0456806 0)
(20.0003 0.0132556 0)
(2.37925 -0.00104567 0)
(6.93665 0.00640746 0)
(11.4059 0.0361772 0)
(15.5036 0.0903896 0)
(18.7099 0.157107 0)
(20.6695 0.214179 0)
(21.5106 0.248537 0)
(21.6796 0.263707 0)
(21.5797 0.269291 0)
(21.4193 0.272054 0)
(21.2647 0.274457 0)
(21.1264 0.276927 0)
(21.0024 0.279322 0)
(20.8899 0.281375 0)
(20.7863 0.282715 0)
(20.6898 0.28287 0)
(20.5986 0.281298 0)
(20.5116 0.27723 0)
(20.4287 0.269484 0)
(20.35 0.257027 0)
(20.2755 0.239491 0)
(20.2056 0.216353 0)
(20.1423 0.18672 0)
(20.0892 0.150993 0)
(20.0489 0.111896 0)
(20.0219 0.0734123 0)
(20.0066 0.0391066 0)
(20.0003 0.0112211 0)
(2.37913 -0.00154979 0)
(6.87812 0.00349415 0)
(11.2756 0.0295461 0)
(15.319 0.0791994 0)
(18.5347 0.142418 0)
(20.5583 0.198252 0)
(21.4734 0.23364 0)
(21.6897 0.249922 0)
(21.6085 0.256075 0)
(21.4521 0.258887 0)
(21.2971 0.261161 0)
(21.158 0.263464 0)
(21.0335 0.265735 0)
(20.921 0.267759 0)
(20.8179 0.269249 0)
(20.7221 0.269822 0)
(20.6323 0.269013 0)
(20.5471 0.266286 0)
(20.4656 0.26085 0)
(20.3881 0.251637 0)
(20.3148 0.237919 0)
(20.2457 0.219468 0)
(20.1817 0.195859 0)
(20.1248 0.166685 0)
(20.0778 0.132905 0)
(20.0426 0.0972152 0)
(20.0192 0.0630103 0)
(20.0058 0.0331473 0)
(20.0002 0.00936969 0)
(2.38421 -0.00193823 0)
(6.83907 2.45282e-05 0)
(11.1597 0.0224325 0)
(15.1527 0.0679637 0)
(18.3682 0.12748 0)
(20.4487 0.182336 0)
(21.4336 0.218338 0)
(21.6977 0.235866 0)
(21.6367 0.242687 0)
(21.485 0.245694 0)
(21.3295 0.247926 0)
(21.1893 0.250144 0)
(21.0642 0.252336 0)
(20.9515 0.254339 0)
(20.8485 0.25593 0)
(20.7533 0.256805 0)
(20.6644 0.256576 0)
(20.5804 0.254794 0)
(20.5004 0.250928 0)
(20.4241 0.24419 0)
(20.3516 0.233684 0)
(20.2832 0.218937 0)
(20.2194 0.199826 0)
(20.1609 0.176074 0)
(20.1097 0.147732 0)
(20.0682 0.116109 0)
(20.0373 0.0837519 0)
(20.0168 0.0535219 0)
(20.0051 0.02771 0)
(20.0002 0.00766944 0)
(2.4049 -0.00292444 0)
(6.80856 -0.00378195 0)
(11.0677 0.0146992 0)
(15.0002 0.0559813 0)
(18.2132 0.112381 0)
(20.3411 0.1658 0)
(21.3922 0.202641 0)
(21.7038 0.221347 0)
(21.6643 0.228975 0)
(21.5179 0.232291 0)
(21.3623 0.234606 0)
(21.221 0.236818 0)
(21.095 0.238998 0)
(20.9817 0.241016 0)
(20.8786 0.242694 0)
(20.7836 0.2438 0)
(20.6952 0.24402 0)
(20.612 0.24297 0)
(20.5333 0.240222 0)
(20.4582 0.235246 0)
(20.3865 0.2273 0)
(20.3187 0.215684 0)
(20.2551 0.200136 0)
(20.1961 0.180609 0)
(20.1428 0.157029 0)
(20.0968 0.129822 0)
(20.0601 0.100489 0)
(20.0329 0.0713542 0)
(20.0149 0.0448177 0)
(20.0046 0.0227045 0)
(20.0002 0.00610257 0)
(2.42958 -0.00352372 0)
(6.80992 -0.00903588 0)
(10.986 0.00591187 0)
(14.8701 0.0434243 0)
(18.0678 0.0962818 0)
(20.2379 0.148732 0)
(21.3496 0.186069 0)
(21.7085 0.206143 0)
(21.6915 0.21473 0)
(21.5514 0.218526 0)
(21.3957 0.221026 0)
(21.2529 0.223337 0)
(21.1258 0.225583 0)
(21.0118 0.227675 0)
(20.9083 0.229463 0)
(20.8132 0.230767 0)
(20.725 0.231345 0)
(20.6425 0.230881 0)
(20.5645 0.229004 0)
(20.4905 0.225307 0)
(20.4197 0.21927 0)
(20.3524 0.210233 0)
(20.2891 0.197698 0)
(20.2299 0.18156 0)
(20.1755 0.161859 0)
(20.127 0.138736 0)
(20.0858 0.112904 0)
(20.0531 0.0859253 0)
(20.0292 0.0598861 0)
(20.0132 0.0367693 0)
(20.0041 0.0180818 0)
(20.0002 0.00464397 0)
(2.48587 -0.0056776 0)
(6.81227 -0.0145415 0)
(10.9414 -0.00458217 0)
(14.7514 0.029109 0)
(17.938 0.0794308 0)
(20.1386 0.130339 0)
(21.3073 0.168594 0)
(21.7121 0.189937 0)
(21.7186 0.199708 0)
(21.5853 0.204152 0)
(21.4297 0.207014 0)
(21.2855 0.209536 0)
(21.1569 0.211946 0)
(21.0419 0.214183 0)
(20.9378 0.216131 0)
(20.8424 0.217643 0)
(20.7543 0.218532 0)
(20.6721 0.218552 0)
(20.5946 0.217387 0)
(20.5213 0.214688 0)
(20.4514 0.210069 0)
(20.3849 0.203038 0)
(20.3217 0.193044 0)
(20.2624 0.179776 0)
(20.2075 0.16325 0)
(20.1574 0.143608 0)
(20.1133 0.121193 0)
(20.0764 0.0969095 0)
(20.0473 0.0723076 0)
(20.026 0.0492083 0)
(20.0118 0.0293015 0)
(20.0037 0.0137669 0)
(20.0002 0.00326782 0)
(2.54504 -0.00669063 0)
(6.87664 -0.0247922 0)
(10.8966 -0.0168235 0)
(14.6654 0.0130325 0)
(17.8176 0.0603276 0)
(20.0471 0.110746 0)
(21.2656 0.149507 0)
(21.7154 0.172572 0)
(21.7457 0.183616 0)
(21.62 0.188952 0)
(21.4645 0.192338 0)
(21.3187 0.195228 0)
(21.1886 0.19792 0)
(21.0724 0.200399 0)
(20.9673 0.202576 0)
(20.8715 0.204336 0)
(20.7832 0.205531 0)
(20.7009 0.205973 0)
(20.6238 0.20541 0)
(20.5509 0.20354 0)
(20.4817 0.200035 0)
(20.4159 0.194534 0)
(20.3531 0.18659 0)
(20.2938 0.175784 0)
(20.2384 0.161963 0)
(20.1875 0.145244 0)
(20.1415 0.125876 0)
(20.1015 0.104376 0)
(20.0682 0.0817678 0)
(20.0423 0.0595116 0)
(20.0234 0.0392323 0)
(20.0108 0.0223037 0)
(20.0034 0.00969032 0)
(20.0001 0.00196151 0)
(2.65928 -0.0141142 0)
(6.92479 -0.0317388 0)
(10.921 -0.0346039 0)
(14.5833 -0.00623979 0)
(17.7203 0.0390862 0)
(19.9608 0.0885732 0)
(21.2267 0.128698 0)
(21.7187 0.153429 0)
(21.7733 0.16619 0)
(21.6556 0.172623 0)
(21.5005 0.176761 0)
(21.353 0.180194 0)
(21.221 0.183316 0)
(21.1033 0.186158 0)
(20.9973 0.188658 0)
(20.9006 0.190733 0)
(20.8119 0.192266 0)
(20.7295 0.193112 0)
(20.6524 0.193079 0)
(20.5798 0.19192 0)
(20.511 0.189348 0)
(20.4456 0.185062 0)
(20.3833 0.178731 0)
(20.3242 0.169972 0)
(20.2687 0.158501 0)
(20.217 0.144298 0)
(20.1697 0.127569 0)
(20.1276 0.108669 0)
(20.0913 0.0882542 0)
(20.0614 0.0673866 0)
(20.0381 0.0474514 0)
(20.0212 0.0298313 0)
(20.0098 0.0156746 0)
(20.0031 0.00581772 0)
(20.0001 0.000702083 0)
(2.86069 -0.00828968 0)
(7.097 -0.0632639 0)
(10.9196 -0.0530998 0)
(14.558 -0.0313978 0)
(17.6298 0.0137885 0)
(19.8876 0.0635049 0)
(21.1901 0.105063 0)
(21.7231 0.132143 0)
(21.8018 0.146892 0)
(21.6925 0.154819 0)
(21.5378 0.159982 0)
(21.3883 0.164176 0)
(21.2543 0.167918 0)
(21.1349 0.17127 0)
(21.0275 0.174216 0)
(20.93 0.176697 0)
(20.8406 0.178632 0)
(20.7577 0.179907 0)
(20.6805 0.180376 0)
(20.608 0.17985 0)
(20.5394 0.178088 0)
(20.4744 0.174825 0)
(20.4125 0.169792 0)
(20.3537 0.162694 0)
(20.2979 0.153227 0)
(20.2459 0.141237 0)
(20.1977 0.126816 0)
(20.1541 0.110244 0)
(20.1155 0.0919809 0)
(20.0825 0.0727704 0)
(20.0556 0.0536973 0)
(20.0346 0.0360029 0)
(20.0194 0.0208885 0)
(20.0091 0.00935765 0)
(20.0029 0.00207655 0)
(20.0001 -0.000531762 0)
(2.83025 -0.122319 0)
(7.25046 -0.0601308 0)
(11.059 -0.095149 0)
(14.5199 -0.0606343 0)
(17.5773 -0.0182745 0)
(19.8207 0.0339547 0)
(21.1596 0.0777606 0)
(21.7289 0.107842 0)
(21.8315 0.125159 0)
(21.7309 0.135067 0)
(21.5767 0.14161 0)
(21.425 0.146875 0)
(21.2886 0.151456 0)
(21.1672 0.155518 0)
(21.0583 0.159061 0)
(20.9596 0.162072 0)
(20.8693 0.164496 0)
(20.786 0.166258 0)
(20.7084 0.167246 0)
(20.6358 0.167318 0)
(20.5672 0.166286 0)
(20.5023 0.163922 0)
(20.4408 0.15999 0)
(20.3821 0.154252 0)
(20.3265 0.146458 0)
(20.2742 0.136396 0)
(20.2255 0.124028 0)
(20.1806 0.109536 0)
(20.1403 0.0932763 0)
(20.1049 0.0757859 0)
(20.075 0.0578817 0)
(20.0507 0.0405931 0)
(20.0319 0.0250523 0)
(20.018 0.0123265 0)
(20.0085 0.00324195 0)
(20.0028 -0.00159003 0)
(20.0001 -0.00176091 0)
(7.57339 -0.23153 0)
(4.52203 -0.235877 0)
(11.1279 -0.129366 0)
(14.5864 -0.114114 0)
(17.5259 -0.0564286 0)
(19.7753 -0.00349967 0)
(21.1335 0.0456574 0)
(21.738 0.0793099 0)
(21.863 0.100289 0)
(21.7713 0.112679 0)
(21.6174 0.121202 0)
(21.4634 0.127878 0)
(21.3243 0.133626 0)
(21.2006 0.138627 0)
(21.0898 0.142974 0)
(20.9897 0.146669 0)
(20.8984 0.149707 0)
(20.8143 0.152044 0)
(20.7362 0.153605 0)
(20.6633 0.154284 0)
(20.5946 0.15394 0)
(20.5298 0.152395 0)
(20.4683 0.149438 0)
(20.4099 0.144864 0)
(20.3543 0.138471 0)
(20.3018 0.130062 0)
(20.2526 0.119519 0)
(20.2071 0.106906 0)
(20.1654 0.0924824 0)
(20.1283 0.0766617 0)
(20.0959 0.0600645 0)
(20.0687 0.0435059 0)
(20.0466 0.0279749 0)
(20.0295 0.0145099 0)
(20.0168 0.00401408 0)
(20.0081 -0.00275731 0)
(20.0027 -0.00524311 0)
(20.0001 -0.00297175 0)
(11.4409 -0.299604 0)
(8.04459 -0.401382 0)
(2.06593 0.404501 0)
(5.97562 -0.300764 0)
(14.6141 -0.172521 0)
(17.5372 -0.119602 0)
(19.7365 -0.0484451 0)
(21.1183 0.00475157 0)
(21.7504 0.0456767 0)
(21.8972 0.070815 0)
(21.8141 0.0870339 0)
(21.6605 0.0980201 0)
(21.5036 0.106742 0)
(21.3615 0.11401 0)
(21.2351 0.12029 0)
(21.1223 0.125679 0)
(21.0206 0.130268 0)
(20.9279 0.13408 0)
(20.8428 0.137115 0)
(20.7641 0.139335 0)
(20.6905 0.14067 0)
(20.6217 0.141021 0)
(20.5567 0.14025 0)
(20.4952 0.13819 0)
(20.4368 0.134656 0)
(20.3814 0.129473 0)
(20.3289 0.12248 0)
(20.2793 0.113542 0)
(20.2331 0.10263 0)
(20.1905 0.0898978 0)
(20.152 0.0756576 0)
(20.1177 0.0603965 0)
(20.0881 0.0447564 0)
(20.0633 0.0295612 0)
(20.0433 0.0157526 0)
(20.0277 0.00423607 0)
(20.016 -0.00415368 0)
(20.0078 -0.00873924 0)
(20.0026 -0.0088428 0)
(20.0001 -0.0041445 0)
(14.7948 -0.340334 0)
(11.6364 -0.485837 0)
(8.80335 -0.546247 0)
(0.750953 1.00296 0)
(3.8131 0.108003 0)
(7.1798 -0.573487 0)
(17.5403 -0.194555 0)
(19.7304 -0.118211 0)
(21.1095 -0.0447996 0)
(21.7684 0.00272127 0)
(21.9347 0.0359454 0)
(21.8597 0.0565838 0)
(21.7061 0.0714323 0)
(21.5461 0.0827266 0)
(21.4005 0.0921539 0)
(21.2712 0.100087 0)
(21.1559 0.106865 0)
(21.0522 0.1126 0)
(20.958 0.117396 0)
(20.8716 0.121291 0)
(20.792 0.124293 0)
(20.7179 0.12637 0)
(20.6485 0.127459 0)
(20.5833 0.127464 0)
(20.5217 0.126257 0)
(20.4633 0.123687 0)
(20.4078 0.119596 0)
(20.3552 0.113844 0)
(20.3056 0.106312 0)
(20.259 0.0969306 0)
(20.2156 0.0857583 0)
(20.176 0.0730091 0)
(20.1402 0.0590641 0)
(20.1087 0.0444365 0)
(20.0816 0.0297996 0)
(20.059 0.0159666 0)
(20.0407 0.00378853 0)
(20.0264 -0.0058861 0)
(20.0155 -0.0123098 0)
(20.0078 -0.0146348 0)
(20.0027 -0.0123297 0)
(20.0001 -0.00529626 0)
(17.6168 -0.357122 0)
(14.9027 -0.526635 0)
(11.9417 -0.690889 0)
(9.68076 -0.798312 0)
(0.326053 1.21249 0)
(2.26633 0.462258 0)
(5.06022 -0.306034 0)
(8.14829 -1.00696 0)
(19.7272 -0.204025 0)
(21.1159 -0.117952 0)
(21.7915 -0.0497878 0)
(21.9761 -0.00836163 0)
(21.9086 0.0204407 0)
(21.7546 0.0399334 0)
(21.591 0.055153 0)
(21.4414 0.0673337 0)
(21.3087 0.0775504 0)
(21.1906 0.0861167 0)
(21.0847 0.0933454 0)
(20.9887 0.0993879 0)
(20.901 0.104357 0)
(20.8202 0.108303 0)
(20.7453 0.111245 0)
(20.6754 0.113155 0)
(20.6098 0.113978 0)
(20.5478 0.113623 0)
(20.4893 0.111977 0)
(20.4337 0.108906 0)
(20.3811 0.104284 0)
(20.3313 0.0980051 0)
(20.2843 0.0899956 0)
(20.2405 0.080259 0)
(20.1999 0.0689158 0)
(20.1631 0.0562517 0)
(20.1301 0.042676 0)
(20.1011 0.0287399 0)
(20.0763 0.0151268 0)
(20.0556 0.00259696 0)
(20.0388 -0.0080375 0)
(20.0255 -0.0160101 0)
(20.0153 -0.0203485 0)
(20.0078 -0.0203434 0)
(20.0028 -0.0157525 0)
(20.0001 -0.00645632 0)
(19.7516 -0.358681 0)
(17.6548 -0.543362 0)
(15.0033 -0.748457 0)
(12.4152 -0.960787 0)
(10.4706 -1.17753 0)
(0.1512 1.37285 0)
(1.29448 0.701571 0)
(3.31606 -0.0683205 0)
(6.02164 -0.82039 0)
(8.81043 -1.53921 0)
(21.1252 -0.209876 0)
(21.8211 -0.124126 0)
(22.0216 -0.0629294 0)
(21.9613 -0.0250013 0)
(21.8064 0.002488 0)
(21.6388 0.0226175 0)
(21.4847 0.038823 0)
(21.3481 0.0519851 0)
(21.2269 0.0629589 0)
(21.1183 0.0721042 0)
(21.0203 0.0797414 0)
(20.9309 0.0860506 0)
(20.8488 0.0911564 0)
(20.7729 0.0951254 0)
(20.7022 0.0979784 0)
(20.6361 0.0996999 0)
(20.5737 0.100239 0)
(20.5149 0.0995151 0)
(20.4592 0.0974285 0)
(20.4065 0.0938706 0)
(20.3565 0.0887448 0)
(20.3094 0.0819832 0)
(20.2651 0.0735643 0)
(20.2239 0.063545 0)
(20.1861 0.0521235 0)
(20.1518 0.039614 0)
(20.1213 0.0264669 0)
(20.0947 0.0132537 0)
(20.072 0.000629423 0)
(20.0531 -0.0106642 0)
(20.0376 -0.0198863 0)
(20.0253 -0.0259883 0)
(20.0155 -0.0281256 0)
(20.008 -0.0259428 0)
(20.0029 -0.0191957 0)
(20.0002 -0.00764329 0)
(21.1389 -0.355586 0)
(19.7462 -0.542155 0)
(17.6552 -0.763066 0)
(15.1659 -1.03206 0)
(12.9038 -1.31036 0)
(11.0068 -1.63057 0)
(0.000598981 1.42566 0)
(0.693458 0.851558 0)
(1.97293 0.114478 0)
(4.08402 -0.645414 0)
(6.71908 -1.42895 0)
(9.07345 -2.00231 0)
(21.8513 -0.218706 0)
(22.0704 -0.137389 0)
(22.0172 -0.0811662 0)
(21.8616 -0.044011 0)
(21.6895 -0.0160484 0)
(21.5303 0.00533924 0)
(21.3894 0.0226384 0)
(21.2646 0.0367269 0)
(21.1531 0.048395 0)
(21.0527 0.0580626 0)
(20.9615 0.0660626 0)
(20.8779 0.0725982 0)
(20.8008 0.077809 0)
(20.7291 0.0817672 0)
(20.6622 0.0845056 0)
(20.5995 0.0860162 0)
(20.5403 0.0862557 0)
(20.4843 0.085155 0)
(20.4314 0.0826325 0)
(20.3813 0.0786035 0)
(20.3339 0.073006 0)
(20.2893 0.0658092 0)
(20.2476 0.057036 0)
(20.209 0.0468148 0)
(20.1738 0.035375 0)
(20.1422 0.023079 0)
(20.1141 0.0103958 0)
(20.0896 -0.00211514 0)
(20.0689 -0.0137997 0)
(20.0515 -0.0239757 0)
(20.0372 -0.0315646 0)
(20.0255 -0.0356328 0)
(20.016 -0.0357461 0)
(20.0085 -0.0315635 0)
(20.0031 -0.022715 0)
(20.0002 -0.00887236 0)
(21.8762 -0.355707 0)
(21.1245 -0.532545 0)
(19.6962 -0.753643 0)
(17.6452 -1.0386 0)
(15.3281 -1.37246 0)
(13.2426 -1.69653 0)
(11.1821 -2.04756 0)
(-0.177762 1.39108 0)
(0.194828 0.919657 0)
(1.01085 0.198615 0)
(2.36734 -0.509874 0)
(4.69851 -1.29942 0)
(7.12913 -1.91015 0)
(9.40035 -2.28878 0)
(22.1177 -0.232497 0)
(22.0752 -0.155387 0)
(21.9194 -0.101433 0)
(21.7428 -0.0634788 0)
(21.5784 -0.0343685 0)
(21.4326 -0.0116667 0)
(21.3039 0.00666135 0)
(21.1893 0.0215871 0)
(21.0862 0.0338811 0)
(20.9928 0.0440128 0)
(20.9075 0.0523285 0)
(20.829 0.0590505 0)
(20.7562 0.0643289 0)
(20.6885 0.0682467 0)
(20.6251 0.0708455 0)
(20.5654 0.072123 0)
(20.5091 0.0720487 0)
(20.456 0.0705659 0)
(20.4055 0.0676131 0)
(20.358 0.0631314 0)
(20.3131 0.0570933 0)
(20.271 0.0495035 0)
(20.232 0.0404402 0)
(20.196 0.0300686 0)
(20.1633 0.0186646 0)
(20.134 0.00661379 0)
(20.1082 -0.00561528 0)
(20.0858 -0.0174594 0)
(20.0668 -0.0283103 0)
(20.0509 -0.037097 0)
(20.0376 -0.0428406 0)
(20.0262 -0.0450662 0)
(20.0167 -0.0433731 0)
(20.0091 -0.0372954 0)
(20.0034 -0.0263546 0)
(20.0002 -0.0101681 0)
(22.1567 -0.361794 0)
(21.8742 -0.523988 0)
(21.0652 -0.733765 0)
(19.6096 -1.01004 0)
(17.5795 -1.36403 0)
(15.4119 -1.72044 0)
(13.3149 -2.05333 0)
(11.2256 -2.3551 0)
(-0.363732 1.25752 0)
(-0.375958 0.883752 0)
(0.153242 0.146957 0)
(0.870971 -0.460681 0)
(2.75432 -1.14769 0)
(5.36349 -1.7585 0)
(7.76406 -2.1568 0)
(9.88378 -2.43142 0)
(22.1308 -0.249828 0)
(21.9784 -0.175275 0)
(21.7983 -0.121772 0)
(21.6286 -0.0825346 0)
(21.4778 -0.0521935 0)
(21.3447 -0.0283126 0)
(21.2266 -0.00906688 0)
(21.1207 0.00659578 0)
(21.0249 0.0194432 0)
(20.9377 0.0299788 0)
(20.8576 0.0385593 0)
(20.7836 0.0454254 0)
(20.7148 0.0507352 0)
(20.6507 0.0545819 0)
(20.5904 0.0570145 0)
(20.5337 0.0580394 0)
(20.4802 0.057639 0)
(20.4295 0.0557714 0)
(20.3817 0.0523939 0)
(20.3366 0.0474811 0)
(20.2942 0.0410308 0)
(20.2546 0.0330935 0)
(20.218 0.0237823 0)
(20.1846 0.0133053 0)
(20.1543 0.00196882 0)
(20.1273 -0.00984156 0)
(20.1037 -0.0216452 0)
(20.0833 -0.0329161 0)
(20.066 -0.0426143 0)
(20.0513 -0.0497501 0)
(20.0385 -0.0538429 0)
(20.0274 -0.0544711 0)
(20.0178 -0.0511204 0)
(20.0097 -0.0432088 0)
(20.0036 -0.0301849 0)
(20.0002 -0.0115505 0)
(22.1776 -0.372641 0)
(22.1717 -0.520619 0)
(21.8313 -0.713814 0)
(20.9608 -0.969809 0)
(19.4465 -1.30828 0)
(17.4292 -1.68975 0)
(15.3396 -2.02533 0)
(13.1614 -2.35057 0)
(11.4157 -2.52414 0)
(-0.513352 1.02741 0)
(-0.950232 0.733416 0)
(-0.798346 -0.0169182 0)
(-0.543006 -0.537708 0)
(0.939478 -0.990348 0)
(3.73592 -1.52699 0)
(6.30822 -1.96294 0)
(8.48801 -2.28486 0)
(10.4068 -2.52282 0)
(22.0345 -0.268341 0)
(21.8538 -0.195069 0)
(21.6799 -0.141278 0)
(21.5243 -0.100854 0)
(21.3869 -0.069424 0)
(21.2651 -0.0445492 0)
(21.156 -0.0245073 0)
(21.0577 -0.00821072 0)
(20.9684 0.00511401 0)
(20.8866 0.0159886 0)
(20.8112 0.0247841 0)
(20.7413 0.0317496 0)
(20.6762 0.0370518 0)
(20.6153 0.0407953 0)
(20.558 0.0430349 0)
(20.5041 0.043789 0)
(20.4531 0.0430501 0)
(20.405 0.0407945 0)
(20.3597 0.0370039 0)
(20.317 0.0316747 0)
(20.277 0.0248448 0)
(20.24 0.0165911 0)
(20.2059 0.0070667 0)
(20.1748 -0.00348805 0)
(20.1469 -0.0147621 0)
(20.1222 -0.0263526 0)
(20.1008 -0.0378143 0)
(20.0823 -0.0481516 0)
(20.0665 -0.0563874 0)
(20.0526 -0.0620613 0)
(20.0403 -0.0647638 0)
(20.0292 -0.0639797 0)
(20.0193 -0.0590834 0)
(20.0107 -0.0494109 0)
(20.004 -0.0342632 0)
(20.0002 -0.0130418 0)
(22.0815 -0.385596 0)
(22.2031 -0.522153 0)
(22.1504 -0.699089 0)
(21.7424 -0.930586 0)
(20.7832 -1.23806 0)
(19.1758 -1.6087 0)
(17.1876 -1.96387 0)
(15.0747 -2.28804 0)
(13.0377 -2.55005 0)
(11.6984 -2.61806 0)
(-0.601237 0.729114 0)
(-1.376 0.509692 0)
(-1.64504 -0.224978 0)
(-1.73159 -0.662559 0)
(-0.588116 -0.824781 0)
(2.20432 -1.20254 0)
(5.02099 -1.69347 0)
(7.26936 -2.08484 0)
(9.23699 -2.37587 0)
(10.9312 -2.58691 0)
(21.9058 -0.286258 0)
(21.7304 -0.213797 0)
(21.5712 -0.159646 0)
(21.4299 -0.11832 0)
(21.3043 -0.0860095 0)
(21.1922 -0.0603278 0)
(21.0912 -0.039621 0)
(20.9996 -0.0227932 0)
(20.9158 -0.00907265 0)
(20.839 0.00207607 0)
(20.7678 0.0110288 0)
(20.7018 0.0180476 0)
(20.64 0.0233041 0)
(20.5821 0.0269107 0)
(20.5277 0.0289311 0)
(20.4763 0.0293952 0)
(20.4279 0.0283062 0)
(20.3823 0.0256617 0)
(20.3394 0.0214624 0)
(20.2991 0.015739 0)
(20.2616 0.00854785 0)
(20.2271 3.39607e-06 0)
(20.1954 -0.00971132 0)
(20.1668 -0.0203479 0)
(20.1413 -0.0315768 0)
(20.1189 -0.0430239 0)
(20.0995 -0.0537483 0)
(20.0828 -0.0627976 0)
(20.0681 -0.0697476 0)
(20.0548 -0.0742232 0)
(20.0427 -0.0757453 0)
(20.0314 -0.0737039 0)
(20.0211 -0.0673938 0)
(20.0119 -0.0559891 0)
(20.0045 -0.0386525 0)
(20.0003 -0.0146662 0)
(21.9486 -0.398453 0)
(22.1098 -0.526373 0)
(22.1973 -0.689883 0)
(22.0873 -0.898468 0)
(21.5892 -1.17104 0)
(20.5007 -1.50744 0)
(18.8102 -1.86394 0)
(16.835 -2.18866 0)
(14.7058 -2.50024 0)
(13.0464 -2.65768 0)
(11.9804 -2.67635 0)
(-0.630558 0.39431 0)
(-1.58703 0.264546 0)
(-2.15393 -0.405957 0)
(-2.34733 -0.707146 0)
(-1.39827 -0.612376 0)
(0.868465 -0.774918 0)
(3.87796 -1.32065 0)
(6.2992 -1.81624 0)
(8.24395 -2.17517 0)
(9.99755 -2.44472 0)
(11.417 -2.62156 0)
(21.7767 -0.302694 0)
(21.6164 -0.231092 0)
(21.4723 -0.176797 0)
(21.3437 -0.13488 0)
(21.2285 -0.101911 0)
(21.1249 -0.0756033 0)
(21.031 -0.0543656 0)
(20.9454 -0.0371141 0)
(20.8669 -0.0230813 0)
(20.7944 -0.0117285 0)
(20.7272 -0.00267379 0)
(20.6645 0.00434734 0)
(20.606 0.00951665 0)
(20.551 0.0129527 0)
(20.4992 0.0147284 0)
(20.4504 0.0148817 0)
(20.4045 0.0134341 0)
(20.3614 0.0103964 0)
(20.3209 0.00579852 0)
(20.2831 -0.000311784 0)
(20.2481 -0.00784696 0)
(20.2159 -0.0166671 0)
(20.1867 -0.0265782 0)
(20.1605 -0.0373134 0)
(20.1374 -0.0485646 0)
(20.1173 -0.0594456 0)
(20.0999 -0.0690385 0)
(20.0845 -0.0769606 0)
(20.0707 -0.0828814 0)
(20.0579 -0.0863797 0)
(20.0458 -0.0869057 0)
(20.0343 -0.0837845 0)
(20.0233 -0.0761562 0)
(20.0132 -0.0630381 0)
(20.0052 -0.0434215 0)
(20.0003 -0.0164512 0)
(21.8134 -0.409999 0)
(21.9741 -0.531053 0)
(22.1102 -0.683917 0)
(22.1542 -0.873984 0)
(21.969 -1.11476 0)
(21.3473 -1.41008 0)
(20.1127 -1.74008 0)
(18.3736 -2.06317 0)
(16.3408 -2.38397 0)
(14.4202 -2.63281 0)
(13.0947 -2.71106 0)
(12.2273 -2.69228 0)
(-0.610242 0.0531858 0)
(-1.60563 0.0348659 0)
(-2.29949 -0.523391 0)
(-2.37958 -0.613663 0)
(-1.40237 -0.335987 0)
(0.023379 -0.292928 0)
(2.83373 -0.827322 0)
(5.55055 -1.46628 0)
(7.48107 -1.92028 0)
(9.18734 -2.25436 0)
(10.6931 -2.509 0)
(11.7415 -2.59817 0)
(21.6566 -0.317355 0)
(21.5123 -0.246862 0)
(21.3819 -0.19271 0)
(21.2645 -0.150496 0)
(21.1586 -0.117092 0)
(21.0625 -0.0903351 0)
(20.9749 -0.0687019 0)
(20.8948 -0.0511352 0)
(20.8209 -0.036877 0)
(20.7526 -0.0253915 0)
(20.689 -0.0162971 0)
(20.6296 -0.00932256 0)
(20.574 -0.0042815 0)
(20.5218 -0.00105105 0)
(20.4727 0.000451509 0)
(20.4265 0.000276673 0)
(20.383 -0.00154342 0)
(20.3422 -0.00497446 0)
(20.3041 -0.00997113 0)
(20.2688 -0.0164604 0)
(20.2362 -0.024333 0)
(20.2066 -0.0334379 0)
(20.1799 -0.0435627 0)
(20.1562 -0.0544566 0)
(20.1356 -0.0652872 0)
(20.1176 -0.0751747 0)
(20.1018 -0.0837776 0)
(20.0875 -0.0908166 0)
(20.0745 -0.0959285 0)
(20.062 -0.0986483 0)
(20.0498 -0.0983837 0)
(20.0378 -0.0943315 0)
(20.026 -0.0854833 0)
(20.015 -0.0706589 0)
(20.0059 -0.0486468 0)
(20.0003 -0.0184282 0)
(21.6872 -0.419789 0)
(21.834 -0.534855 0)
(21.9746 -0.678799 0)
(22.0775 -0.854558 0)
(22.0647 -1.06978 0)
(21.779 -1.32757 0)
(21.0097 -1.61686 0)
(19.6466 -1.92026 0)
(17.8357 -2.22743 0)
(15.811 -2.53557 0)
(14.2305 -2.69184 0)
(13.1167 -2.7157 0)
(12.3886 -2.63533 0)
(-0.543423 -0.265287 0)
(-1.48139 -0.169295 0)
(-2.16848 -0.574956 0)
(-2.06789 -0.407328 0)
(-1.06527 -0.00604288 0)
(-0.214177 0.139735 0)
(1.93677 -0.258761 0)
(4.83609 -1.0301 0)
(6.92311 -1.62561 0)
(8.51137 -2.02597 0)
(10.0297 -2.35876 0)
(11.1659 -2.53503 0)
(11.8693 -2.47171 0)
(21.5469 -0.330222 0)
(21.4173 -0.261109 0)
(21.2989 -0.207389 0)
(21.1913 -0.165147 0)
(21.0935 -0.131519 0)
(21.0042 -0.104482 0)
(20.9225 -0.0825911 0)
(20.8473 -0.0648175 0)
(20.7777 -0.0504248 0)
(20.7132 -0.0388811 0)
(20.6529 -0.0298078 0)
(20.5967 -0.0229316 0)
(20.544 -0.0180637 0)
(20.4944 -0.0150735 0)
(20.4479 -0.0138719 0)
(20.4041 -0.0143965 0)
(20.3631 -0.0165989 0)
(20.3247 -0.0204316 0)
(20.2891 -0.0258284 0)
(20.2563 -0.0326978 0)
(20.2263 -0.0409205 0)
(20.1992 -0.0503287 0)
(20.175 -0.0607219 0)
(20.154 -0.0713172 0)
(20.1357 -0.0812737 0)
(20.1196 -0.0902894 0)
(20.1051 -0.0981318 0)
(20.0918 -0.104497 0)
(20.0793 -0.109001 0)
(20.0671 -0.11116 0)
(20.0547 -0.110286 0)
(20.042 -0.105461 0)
(20.0292 -0.0954913 0)
(20.0171 -0.0789632 0)