/*--------------------------------*- C++ -*----------------------------------*\
| =========                 |                                                 |
| \\      /  F ield         | OpenFOAM: The Open Source CFD Toolbox           |
|  \\    /   O peration     | Version:  5.x                                   |
|   \\  /    A nd           | Web:      www.OpenFOAM.org                      |
|    \\/     M anipulation  |                                                 |
\*---------------------------------------------------------------------------*/
FoamFile
{
    version     2.0;
    format      ascii;
    class       volVectorField;
    location    "0";
    object      Urom;
}
// * * * * * * * * * * * * * * * * * * * * * * * * * * * * * * * * * * * * * //

dimensions      [0 1 -1 0 0 0 0];

internalField   nonuniform List<vector> 
17720
(
(1.00228 0.000405449 0)
(0.913283 0.00177785 0)
(1.85604 0.038423 0)
(0.797687 0.00323898 0)
(1.59461 0.0502188 0)
(2.15566 0.113616 0)
(0.65497 0.00492215 0)
(1.28071 0.0622147 0)
(1.78218 0.1402 0)
(2.23378 0.21083 0)
(0.48516 0.00684235 0)
(0.915748 0.0739961 0)
(1.34865 0.166599 0)
(1.80966 0.253169 0)
(2.25986 0.318864 0)
(0.289286 0.00876197 0)
(0.503149 0.0854985 0)
(0.858164 0.191337 0)
(1.32779 0.294279 0)
(1.82769 0.376548 0)
(2.31322 0.430042 0)
(0.06982 0.0108874 0)
(0.0501338 0.0957515 0)
(0.316604 0.214116 0)
(0.792436 0.332497 0)
(1.34278 0.431613 0)
(1.89336 0.501787 0)
(2.43969 0.543093 0)
(-0.169116 0.0126458 0)
(-0.433551 0.104531 0)
(-0.265034 0.232728 0)
(0.210089 0.366638 0)
(0.809198 0.482358 0)
(1.42837 0.570366 0)
(2.02939 0.626094 0)
(2.67608 0.662227 0)
(-0.42096 0.0144341 0)
(-0.935616 0.110518 0)
(-0.872346 0.246488 0)
(-0.408203 0.393311 0)
(0.233997 0.526679 0)
(0.918778 0.633161 0)
(1.58571 0.706347 0)
(2.25766 0.752633 0)
(3.05039 0.794458 0)
(-0.677544 0.0155572 0)
(-1.44082 0.113521 0)
(-1.48814 0.253398 0)
(-1.04809 0.41069 0)
(-0.371618 0.560893 0)
(0.36992 0.686962 0)
(1.10629 0.780745 0)
(1.81956 0.841182 0)
(2.60206 0.888006 0)
(3.57923 0.947392 0)
(-0.929514 0.0160126 0)
(-1.93327 0.112435 0)
(-2.09289 0.252683 0)
(-1.69072 0.415902 0)
(-0.99514 0.581115 0)
(-0.206411 0.727361 0)
(0.591473 0.844318 0)
(1.35985 0.924254 0)
(2.14786 0.980628 0)
(3.08144 1.0396 0)
(4.27386 1.12986 0)
(-1.16707 0.0159371 0)
(-2.39556 0.107173 0)
(-2.66776 0.243458 0)
(-2.31414 0.408414 0)
(-1.61935 0.583856 0)
(-0.797094 0.749494 0)
(0.0495339 0.890859 0)
(0.876511 0.996485 0)
(1.6876 1.06783 0)
(2.59238 1.13187 0)
(3.70677 1.21395 0)
(5.14706 1.35277 0)
(-1.38249 0.0154377 0)
(-2.80986 0.0980066 0)
(-3.19226 0.224975 0)
(-2.89827 0.387032 0)
(-2.22183 0.568187 0)
(-1.38601 0.749216 0)
(-0.506813 0.914376 0)
(0.371286 1.04979 0)
(1.22062 1.14466 0)
(2.11147 1.21817 0)
(3.16872 1.30112 0)
(4.48891 1.41867 0)
(6.2134 1.62802 0)
(-1.57028 0.0144289 0)
(-3.16194 0.0860651 0)
(-3.64473 0.197929 0)
(-3.42143 0.350403 0)
(-2.78223 0.532666 0)
(-1.95154 0.724893 0)
(-1.0612 0.910253 0)
(-0.149047 1.07568 0)
(0.745321 1.20294 0)
(1.64036 1.29428 0)
(2.65295 1.3818 0)
(3.88739 1.49349 0)
(5.44214 1.66295 0)
(7.49025 1.96825 0)
(-1.72468 0.013214 0)
(-3.4412 0.0713944 0)
(-4.00692 0.164498 0)
(-3.86026 0.300189 0)
(-3.27928 0.475923 0)
(-2.47362 0.67476 0)
(-1.59112 0.876064 0)
(-0.670423 1.06816 0)
(0.261279 1.23171 0)
(1.17841 1.35279 0)
(2.16043 1.45188 0)
(3.32704 1.5638 0)
(4.76073 1.71521 0)
(6.58361 1.95697 0)
(8.99344 2.38456 0)
(-1.83833 0.0112447 0)
(-3.63817 0.0544084 0)
(-4.26562 0.126079 0)
(-4.19508 0.238991 0)
(-3.68976 0.399739 0)
(-2.93265 0.597647 0)
(-2.07408 0.810249 0)
(-1.17024 1.02308 0)
(-0.223307 1.2219 0)
(0.722196 1.38156 0)
(1.69384 1.50468 0)
(2.80294 1.62281 0)
(4.14597 1.76799 0)
(5.80441 1.97358 0)
(7.935 2.31238 0)
(10.7223 2.87945 0)
(-1.90277 0.00862259 0)
(-3.74344 0.0338705 0)
(-4.41331 0.0835766 0)
(-4.41111 0.170605 0)
(-3.9938 0.307721 0)
(-3.30743 0.494957 0)
(-2.49028 0.712117 0)
(-1.62163 0.939322 0)
(-0.689265 1.16678 0)
(0.276008 1.36857 0)
(1.25153 1.52768 0)
(2.31956 1.66388 0)
(3.58522 1.81042 0)
(5.1244 1.99869 0)
(7.0376 2.27701 0)
(9.51705 2.73954 0)
(12.6617 3.44428 0)
(-1.91184 0.00520008 0)
(-3.74773 0.0104674 0)
(-4.44668 0.0359274 0)
(-4.50217 0.0974138 0)
(-4.17573 0.205775 0)
(-3.57981 0.371482 0)
(-2.82175 0.583008 0)
(-1.9993 0.817458 0)
(-1.11013 1.06393 0)
(-0.146311 1.30401 0)
(0.837187 1.50645 0)
(1.87964 1.67414 0)
(3.0801 1.83349 0)
(4.52313 2.01691 0)
(6.27909 2.26064 0)
(8.48526 2.63596 0)
(11.3386 3.24092 0)
(14.8145 4.0703 0)
(-1.86555 0.00155177 0)
(-3.64722 -0.0141561 0)
(-4.36378 -0.0157748 0)
(-4.47143 0.0197126 0)
(-4.22816 0.0990848 0)
(-3.73561 0.234604 0)
(-3.05442 0.428854 0)
(-2.28545 0.660555 0)
(-1.45614 0.914935 0)
(-0.525716 1.18291 0)
(0.461848 1.43001 0)
(1.4874 1.63758 0)
(2.63641 1.82376 0)
(3.99527 2.01496 0)
(5.63268 2.2444 0)
(7.62932 2.56 0)
(10.1753 3.06119 0)
(13.4003 3.8095 0)
(17.1929 4.75501 0)
(-1.7706 -0.00193912 0)
(-3.44926 -0.0368414 0)
(-4.16668 -0.0675419 0)
(-4.32674 -0.0612551 0)
(-4.15692 -0.00954878 0)
(-3.76599 0.0929398 0)
(-3.17943 0.258522 0)
(-2.47097 0.475976 0)
(-1.70443 0.726652 0)
(-0.837099 1.00615 0)
(0.135706 1.29099 0)
(1.15186 1.54297 0)
(2.25873 1.76513 0)
(3.545 1.97808 0)
(5.08165 2.20966 0)
(6.92772 2.49526 0)
(9.20285 2.90715 0)
(12.1257 3.55644 0)
(15.718 4.44196 0)
(19.6864 5.46683 0)
(-1.63789 -0.00489739 0)
(-3.17363 -0.0550769 0)
(-3.86585 -0.113007 0)
(-4.07765 -0.140382 0)
(-3.97733 -0.118323 0)
(-3.67414 -0.0473943 0)
(-3.19141 0.0824422 0)
(-2.55429 0.274506 0)
(-1.84543 0.509857 0)
(-1.05487 0.783866 0)
(-0.128596 1.08913 0)
(0.878966 1.38372 0)
(1.95251 1.64577 0)
(3.1768 1.89092 0)
(4.62237 2.13865 0)
(6.35103 2.41901 0)
(8.42481 2.77505 0)
(11.0302 3.31461 0)
(14.3526 4.12067 0)
(18.2547 5.12971 0)
(22.0002 6.12033 0)
(-1.47777 -0.00737821 0)
(-2.84655 -0.0681189 0)
(-3.48437 -0.14692 0)
(-3.73418 -0.209151 0)
(-3.70625 -0.222313 0)
(-3.47648 -0.182882 0)
(-3.08999 -0.0903167 0)
(-2.53754 0.06701 0)
(-1.88192 0.277833 0)
(-1.16276 0.531284 0)
(-0.311987 0.833834 0)
(0.670569 1.15871 0)
(1.72137 1.46134 0)
(2.89175 1.74211 0)
(4.25811 2.01684 0)
(5.87998 2.30757 0)
(7.81139 2.64532 0)
(10.1468 3.09542 0)
(13.1399 3.79228 0)
(16.8549 4.75435 0)
(20.7856 5.81516 0)
(23.8258 6.62586 0)
(-1.29786 -0.0092552 0)
(-2.48934 -0.077144 0)
(-3.05366 -0.168735 0)
(-3.31126 -0.259873 0)
(-3.35349 -0.313659 0)
(-3.19336 -0.309735 0)
(-2.88444 -0.253575 0)
(-2.42206 -0.136654 0)
(-1.82366 0.0418319 0)
(-1.1591 0.266068 0)
(-0.39407 0.54332 0)
(0.533312 0.874065 0)
(1.56489 1.21141 0)
(2.68978 1.5275 0)
(3.9883 1.83422 0)
(5.51284 2.14515 0)
(7.32412 2.48751 0)
(9.4697 2.89454 0)
(12.1261 3.47375 0)
(15.5521 4.34871 0)
(19.4959 5.43009 0)
(22.9546 6.39846 0)
(25.0393 6.95223 0)
(-1.10464 -0.0105524 0)
(-2.11401 -0.0832257 0)
(-2.59917 -0.181959 0)
(-2.83361 -0.290998 0)
(-2.9224 -0.383497 0)
(-2.83551 -0.422783 0)
(-2.59045 -0.403953 0)
(-2.20999 -0.329178 0)
(-1.67842 -0.189662 0)
(-1.05535 0.00149153 0)
(-0.362613 0.240862 0)
(0.482876 0.547207 0)
(1.48107 0.899479 0)
(2.5723 1.2481 0)
(3.80811 1.58575 0)
(5.25148 1.92359 0)
(6.9477 2.279 0)
(8.95417 2.68143 0)
(11.3418 3.18023 0)
(14.4044 3.93116 0)
(18.2028 4.97813 0)
(21.9432 6.06203 0)
(24.5106 6.80877 0)
(25.7225 7.133 0)
(-0.904818 -0.0113465 0)
(-1.7281 -0.0868887 0)
(-2.13436 -0.190471 0)
(-2.32794 -0.30804 0)
(-2.42387 -0.427294 0)
(-2.4006 -0.5139 0)
(-2.21816 -0.539035 0)
(-1.906 -0.506431 0)
(-1.44772 -0.410691 0)
(-0.866566 -0.255625 0)
(-0.221445 -0.0557792 0)
(0.537137 0.205612 0)
(1.47447 0.540154 0)
(2.53701 0.906749 0)
(3.71825 1.27187 0)
(5.08908 1.63774 0)
(6.68606 2.01227 0)
(8.56315 2.42205 0)
(10.7666 2.8947 0)
(13.4704 3.52761 0)
(16.9777 4.48117 0)
(20.8322 5.622 0)
(23.8484 6.55162 0)
(25.4398 7.04847 0)
(26.0505 7.2277 0)
(-0.707161 -0.0116041 0)
(-1.33987 -0.0872725 0)
(-1.66634 -0.195214 0)
(-1.81488 -0.317519 0)
(-1.88377 -0.449822 0)
(-1.88945 -0.57468 0)
(-1.76768 -0.652412 0)
(-1.51391 -0.666372 0)
(-1.12887 -0.617155 0)
(-0.599803 -0.503111 0)
(0.0126096 -0.339746 0)
(0.703111 -0.127704 0)
(1.55857 0.160833 0)
(2.58026 0.517004 0)
(3.71914 0.897046 0)
(5.02121 1.28608 0)
(6.53604 1.68436 0)
(8.29228 2.10379 0)
(10.3506 2.57732 0)
(12.7771 3.14318 0)
(15.8993 3.96853 0)
(19.6778 5.09566 0)
(23.053 6.17491 0)
(25.0715 6.86068 0)
(25.9015 7.17235 0)
(26.1809 7.28553 0)
(-0.522056 -0.0110468 0)
(-0.963348 -0.0835357 0)
(-1.20192 -0.1937 0)
(-1.30763 -0.321062 0)
(-1.33504 -0.45877 0)
(-1.32538 -0.605421 0)
(-1.24121 -0.732424 0)
(-1.03777 -0.802652 0)
(-0.718358 -0.805732 0)
(-0.253067 -0.738124 0)
(0.325253 -0.612594 0)
(0.970971 -0.443035 0)
(1.74426 -0.21105 0)
(2.7047 0.103637 0)
(3.80536 0.475036 0)
(5.04694 0.873983 0)
(6.48663 1.29253 0)
(8.14421 1.72738 0)
(10.0648 2.20305 0)
(12.2982 2.74982 0)
(15.0381 3.4628 0)
(18.5574 4.50884 0)
(22.1422 5.68312 0)
(24.5983 6.55912 0)
(25.7121 7.0244 0)
(26.0864 7.24056 0)
(26.2117 7.33556 0)
(-0.357945 -0.00995602 0)
(-0.617171 -0.0755997 0)
(-0.752789 -0.183932 0)
(-0.813388 -0.316461 0)
(-0.802299 -0.458239 0)
(-0.750847 -0.612678 0)
(-0.66159 -0.772566 0)
(-0.490547 -0.901156 0)
(-0.219558 -0.966446 0)
(0.177966 -0.95583 0)
(0.711949 -0.873731 0)
(1.32486 -0.742501 0)
(2.03078 -0.561577 0)
(2.91506 -0.304023 0)
(3.9715 0.0302236 0)
(5.16133 0.416564 0)
(6.52973 0.841629 0)
(8.10627 1.2927 0)
(9.90558 1.77196 0)
(11.9842 2.31396 0)
(14.4232 2.96243 0)
(17.5607 3.89045 0)
(21.158 5.08848 0)
(24.0071 6.13847 0)
(25.4661 6.77606 0)
(25.977 7.10853 0)
(26.129 7.29155 0)
(26.1905 7.3932 0)
(-0.219708 -0.00850003 0)
(-0.316637 -0.0647897 0)
(-0.336311 -0.165383 0)
(-0.338284 -0.300739 0)
(-0.294247 -0.448465 0)
(-0.201355 -0.605152 0)
(-0.0732725 -0.777086 0)
(0.100463 -0.949273 0)
(0.346236 -1.08154 0)
(0.690239 -1.1416 0)
(1.17085 -1.11733 0)
(1.75249 -1.02782 0)
(2.40861 -0.890909 0)
(3.21271 -0.689927 0)
(4.21258 -0.408128 0)
(5.35696 -0.0601849 0)
(6.65774 0.34787 0)
(8.15941 0.803657 0)
(9.86353 1.29037 0)
(11.803 1.82615 0)
(14.027 2.44587 0)
(16.7659 3.26295 0)
(20.1688 4.41113 0)
(23.2993 5.59668 0)
(25.1434 6.4208 0)
(25.8442 6.88486 0)
(26.0441 7.16492 0)
(26.0974 7.344 0)
(26.1348 7.4658 0)
(-0.107635 -0.00692862 0)
(-0.068828 -0.0532006 0)
(0.0305506 -0.140362 0)
(0.109288 -0.272454 0)
(0.189324 -0.426616 0)
(0.312005 -0.587402 0)
(0.482659 -0.759647 0)
(0.693811 -0.949271 0)
(0.945452 -1.13483 0)
(1.2623 -1.27202 0)
(1.69371 -1.32481 0)
(2.24265 -1.29272 0)
(2.86318 -1.20043 0)
(3.59474 -1.05102 0)
(4.52305 -0.824356 0)
(5.62447 -0.525962 0)
(6.86308 -0.162231 0)
(8.28882 0.275355 0)
(9.91336 0.764215 0)
(11.7365 1.29496 0)
(13.7952 1.89734 0)
(16.2036 2.6353 0)
(19.2632 3.68195 0)
(22.4941 4.93617 0)
(24.7244 5.9513 0)
(25.6769 6.56727 0)
(25.9489 6.94981 0)
(26.0123 7.21833 0)
(26.0215 7.40787 0)
(26.0496 7.55422 0)
(-0.0179108 -0.005495 0)
(0.129492 -0.0425994 0)
(0.335971 -0.114028 0)
(0.518779 -0.233601 0)
(0.650667 -0.391156 0)
(0.796278 -0.559166 0)
(0.992846 -0.731574 0)
(1.24846 -0.919177 0)
(1.53958 -1.12804 0)
(1.86092 -1.32846 0)
(2.26073 -1.46828 0)
(2.77904 -1.51604 0)
(3.37595 -1.48317 0)
(4.05143 -1.3859 0)
(4.89744 -1.21403 0)
(5.94886 -0.964694 0)
(7.13845 -0.655214 0)
(8.48451 -0.266577 0)
(10.0301 0.205344 0)
(11.7596 0.73172 0)
(13.6814 1.31838 0)
(15.8451 2.0059 0)
(18.5162 2.93679 0)
(21.6436 4.17612 0)
(24.1909 5.35786 0)
(25.4571 6.15209 0)
(25.8394 6.64645 0)
(25.9226 7.00848 0)
(25.9223 7.27828 0)
(25.9161 7.48911 0)
(25.9372 7.65543 0)
(0.0539639 -0.00436018 0)
(0.289252 -0.034004 0)
(0.580565 -0.0912614 0)
(0.875263 -0.190971 0)
(1.08919 -0.342305 0)
(1.26325 -0.518797 0)
(1.47055 -0.696767 0)
(1.74954 -0.878501 0)
(2.09108 -1.08283 0)
(2.45085 -1.31341 0)
(2.84549 -1.52702 0)
(3.3401 -1.66736 0)
(3.92419 -1.71708 0)
(4.56471 -1.6858 0)
(5.33089 -1.57387 0)
(6.31244 -1.37384 0)
(7.46599 -1.11073 0)
(8.7413 -0.786446 0)
(10.1983 -0.362978 0)
(11.8417 0.14669 0)
(13.6496 0.720098 0)
(15.6341 1.37433 0)
(17.9557 2.2023 0)
(20.8216 3.35928 0)
(23.5434 4.64079 0)
(25.1572 5.62919 0)
(25.7085 6.25756 0)
(25.8211 6.71165 0)
(25.8262 7.07295 0)
(25.7941 7.35176 0)
(25.7893 7.58927 0)
(25.8011 7.76703 0)
(0.111145 -0.00347825 0)
(0.420609 -0.0272217 0)
(0.77886 -0.0740919 0)
(1.16854 -0.15325 0)
(1.49236 -0.285347 0)
(1.71932 -0.464045 0)
(1.93554 -0.653307 0)
(2.21309 -0.836934 0)
(2.58386 -1.02669 0)
(2.9993 -1.25154 0)
(3.42073 -1.50416 0)
(3.9041 -1.72609 0)
(4.48343 -1.87007 0)
(5.11116 -1.92762 0)
(5.81518 -1.89168 0)
(6.70639 -1.75266 0)
(7.8149 -1.52818 0)
(9.04596 -1.25658 0)
(10.41 -0.90561 0)
(11.9609 -0.440615 0)
(13.6681 0.112941 0)
(15.5138 0.744266 0)
(17.565 1.49606 0)
(20.0897 2.53312 0)
(22.8154 3.82903 0)
(24.7482 4.9884 0)
(25.5391 5.78026 0)
(25.7066 6.33235 0)
(25.7192 6.78483 0)
(25.6812 7.14689 0)
(25.643 7.4456 0)
(25.644 7.70607 0)
(25.6434 7.89072 0)
(0.155381 -0.00258678 0)
(0.528946 -0.0215383 0)
(0.947134 -0.0612469 0)
(1.40608 -0.125572 0)
(1.83881 -0.230793 0)
(2.1551 -0.395984 0)
(2.39742 -0.595439 0)
(2.66502 -0.791892 0)
(3.03051 -0.976637 0)
(3.4886 -1.17727 0)
(3.96128 -1.42608 0)
(4.45303 -1.69627 0)
(5.03125 -1.92383 0)
(5.66596 -2.0789 0)
(6.33487 -2.1423 0)
(7.13492 -2.08756 0)
(8.1639 -1.91456 0)
(9.36548 -1.67436 0)
(10.6587 -1.38915 0)
(12.1042 -0.998229 0)
(13.7127 -0.486452 0)
(15.4403 0.119744 0)
(17.2975 0.82366 0)
(19.4842 1.73768 0)
(22.0582 2.97188 0)
(24.2199 4.24069 0)
(25.3022 5.20579 0)
(25.5759 5.87503 0)
(25.5959 6.41371 0)
(25.5647 6.86817 0)
(25.5044 7.23646 0)
(25.4786 7.56264 0)
(25.4765 7.83664 0)
(25.4627 8.03346 0)
(0.187724 -0.00174152 0)
(0.615925 -0.0162759 0)
(1.09365 -0.050214 0)
(1.6069 -0.106243 0)
(2.11987 -0.189008 0)
(2.54367 -0.324393 0)
(2.84654 -0.518739 0)
(3.11837 -0.732284 0)
(3.45847 -0.930096 0)
(3.92276 -1.11463 0)
(4.44887 -1.33217 0)
(4.97347 -1.6048 0)
(5.55128 -1.88532 0)
(6.20443 -2.12281 0)
(6.86957 -2.29347 0)
(7.59934 -2.35043 0)
(8.5217 -2.2617 0)
(9.66751 -2.05603 0)
(10.9222 -1.80505 0)
(12.268 -1.49196 0)
(13.7673 -1.05095 0)
(15.3868 -0.487104 0)
(17.0988 0.180698 0)
(19.0094 0.99791 0)
(21.3248 2.11699 0)
(23.5868 3.42106 0)
(24.9661 4.53651 0)
(25.4143 5.33976 0)
(25.4577 5.96549 0)
(25.4324 6.51003 0)
(25.3706 6.96206 0)
(25.3131 7.34905 0)
(25.2988 7.70016 0)
(25.2792 7.9815 0)
(25.2592 8.20631 0)
(0.209603 -0.00106354 0)
(0.682166 -0.0115636 0)
(1.2185 -0.0394556 0)
(1.78503 -0.089979 0)
(2.34927 -0.160586 0)
(2.86165 -0.264329 0)
(3.25465 -0.430466 0)
(3.56155 -0.64772 0)
(3.88625 -0.869451 0)
(4.32356 -1.06348 0)
(4.87684 -1.2522 0)
(5.45235 -1.49202 0)
(6.03943 -1.78292 0)
(6.7039 -2.07041 0)
(7.39556 -2.32633 0)
(8.08852 -2.50678 0)
(8.9076 -2.53913 0)
(9.9531 -2.40684 0)
(11.1692 -2.17559 0)
(12.4468 -1.90832 0)
(13.8283 -1.55051 0)
(15.3393 -1.05338 0)
(16.9294 -0.432389 0)
(18.6374 0.317749 0)
(20.6629 1.30642 0)
(22.8833 2.57039 0)
(24.5132 3.79133 0)
(25.1932 4.73113 0)
(25.3025 5.44874 0)
(25.2788 6.07382 0)
(25.2285 6.61764 0)
(25.1533 7.07292 0)
(25.1128 7.48751 0)
(25.091 7.85407 0)
(25.046 8.1469 0)
(25.0378 8.42271 0)
(0.22339 -0.000386199 0)
(0.730229 -0.00782192 0)
(1.31887 -0.0293559 0)
(1.94241 -0.073057 0)
(2.54724 -0.138296 0)
(3.11106 -0.222232 0)
(3.59225 -0.349007 0)
(3.96544 -0.54293 0)
(4.30511 -0.777133 0)
(4.71276 -1.00101 0)
(5.25538 -1.19052 0)
(5.87529 -1.39132 0)
(6.49478 -1.65409 0)
(7.15834 -1.95487 0)
(7.88301 -2.25447 0)
(8.58412 -2.53264 0)
(9.32449 -2.70639 0)
(10.2494 -2.6971 0)
(11.3878 -2.5204 0)
(12.623 -2.26925 0)
(13.9033 -1.97122 0)
(15.2931 -1.55548 0)
(16.7729 -1.00014 0)
(18.3275 -0.311642 0)
(20.0965 0.565364 0)
(22.158 1.73027 0)
(23.9487 2.99739 0)
(24.8826 4.05952 0)
(25.1159 4.87634 0)
(25.1039 5.57032 0)
(25.0647 6.1999 0)
(24.9927 6.73705 0)
(24.9248 7.20947 0)
(24.8906 7.64945 0)
(24.8391 8.02487 0)
(24.7802 8.34621 0)
(24.7962 8.69081 0)
(0.232301 4.79335e-05 0)
(0.765438 -0.0051602 0)
(1.39492 -0.021032 0)
(2.07424 -0.055949 0)
(2.72361 -0.115234 0)
(3.31417 -0.191722 0)
(3.85019 -0.288219 0)
(4.30151 -0.438701 0)
(4.68634 -0.655628 0)
(5.09112 -0.901439 0)
(5.60428 -1.12254 0)
(6.23821 -1.31264 0)
(6.90475 -1.53226 0)
(7.5766 -1.81267 0)
(8.31313 -2.11953 0)
(9.05546 -2.4408 0)
(9.76228 -2.73323 0)
(10.5735 -2.87875 0)
(11.5963 -2.81692 0)
(12.777 -2.60248 0)
(13.9923 -2.32973 0)
(15.2594 -1.98382 0)
(16.6241 -1.50459 0)
(18.0523 -0.887481 0)
(19.618 -0.103749 0)
(21.4625 0.937011 0)
(23.2978 2.1848 0)
(24.4676 3.33895 0)
(24.874 4.25848 0)
(24.905 5.01902 0)
(24.8721 5.7154 0)
(24.8175 6.3388 0)
(24.7357 6.87683 0)
(24.6781 7.37588 0)
(24.6238 7.83237 0)
(24.5399 8.22038 0)
(24.4917 8.59507 0)
(24.5263 8.99179 0)
(0.240345 0.000188218 0)
(0.794784 -0.00408406 0)
(1.45199 -0.0156236 0)
(2.17746 -0.0411155 0)
(2.87678 -0.0907126 0)
(3.49238 -0.162774 0)
(4.04644 -0.246067 0)
(4.5555 -0.355561 0)
(5.00266 -0.528367 0)
(5.43557 -0.763523 0)
(5.93421 -1.0153 0)
(6.55353 -1.2336 0)
(7.25361 -1.43186 0)
(7.95828 -1.67219 0)
(8.69192 -1.96207 0)
(9.47037 -2.28029 0)
(10.1974 -2.62752 0)
(10.926 -2.91463 0)
(11.8183 -3.01224 0)
(12.9062 -2.89632 0)
(14.0767 -2.65248 0)
(15.2511 -2.34884 0)
(16.4901 -1.94195 0)
(17.8008 -1.39921 0)
(19.2043 -0.704075 0)
(20.8317 0.214581 0)
(22.6004 1.38528 0)
(23.9507 2.58787 0)
(24.5561 3.60154 0)
(24.6724 4.43494 0)
(24.6491 5.18321 0)
(24.6135 5.87967 0)
(24.5399 6.49275 0)
(24.458 7.04632 0)
(24.3918 7.57083 0)
(24.3019 8.03672 0)
(24.2075 8.45507 0)
(24.1896 8.88493 0)
(24.2261 9.29563 0)
(0.250691 3.41298e-05 0)
(0.82553 -0.00456603 0)
(1.49887 -0.0138849 0)
(2.25499 -0.0309927 0)
(3.00238 -0.0681505 0)
(3.65311 -0.131901 0)
(4.21091 -0.211194 0)
(4.73804 -0.29784 0)
(5.23998 -0.421452 0)
(5.71883 -0.613468 0)
(6.23194 -0.861754 0)
(6.83781 -1.11635 0)
(7.5427 -1.33631 0)
(8.28645 -1.54851 0)
(9.03084 -1.805 0)
(9.81828 -2.10004 0)
(10.5934 -2.43983 0)
(11.2961 -2.80506 0)
(12.0662 -3.0622 0)
(13.0288 -3.09947 0)
(14.1347 -2.93633 0)
(15.2574 -2.66764 0)
(16.385 -2.31958 0)
(17.5751 -1.84756 0)
(18.8374 -1.23461 0)
(20.2716 -0.428904 0)
(21.9029 0.631046 0)
(23.3468 1.8278 0)
(24.1513 2.91555 0)
(24.3908 3.82391 0)
(24.3972 4.62205 0)
(24.3733 5.37242 0)
(24.323 6.05874 0)
(24.2332 6.67044 0)
(24.1465 7.24858 0)
(24.053 7.78926 0)
(23.9374 8.26921 0)
(23.867 8.72821 0)
(23.8765 9.1892 0)
(23.8983 9.59057 0)
(0.263666 -0.000149038 0)
(0.86211 -0.00584724 0)
(1.54544 -0.0156021 0)
(2.31464 -0.0271608 0)
(3.09992 -0.0512277 0)
(3.79446 -0.101948 0)
(4.36381 -0.176429 0)
(4.88014 -0.256082 0)
(5.40393 -0.34538 0)
(5.92766 -0.482705 0)
(6.47142 -0.689549 0)
(7.08649 -0.946394 0)
(7.78885 -1.20531 0)
(8.55134 -1.43219 0)
(9.32489 -1.65966 0)
(10.1096 -1.92449 0)
(10.9188 -2.22861 0)
(11.653 -2.59547 0)
(12.3436 -2.95878 0)
(13.165 -3.16354 0)
(14.1678 -3.13837 0)
(15.2466 -2.93836 0)
(16.3062 -2.64254 0)
(17.3825 -2.23989 0)
(18.5141 -1.70124 0)
(19.7751 -0.993558 0)
(21.24 -0.0539305 0)
(22.6853 1.08505 0)
(23.6575 2.21413 0)
(24.0458 3.19163 0)
(24.112 4.04223 0)
(24.0991 4.83357 0)
(24.0717 5.58102 0)
(23.9954 6.25549 0)
(23.8929 6.87902 0)
(23.79 7.47874 0)
(23.6681 8.03008 0)
(23.5615 8.53089 0)
(23.5302 9.02243 0)
(23.5458 9.49137 0)
(23.5514 9.878 0)
(0.277295 -9.5218e-05 0)
(0.903802 -0.00669881 0)
(1.59863 -0.0188314 0)
(2.36721 -0.0294161 0)
(3.17268 -0.0427772 0)
(3.91245 -0.077183 0)
(4.51069 -0.141825 0)
(5.01272 -0.220079 0)
(5.52198 -0.294995 0)
(6.067 -0.387558 0)
(6.64088 -0.535758 0)
(7.27554 -0.75199 0)
(7.9934 -1.01632 0)
(8.76395 -1.2838 0)
(9.5603 -1.52046 0)
(10.3556 -1.75931 0)
(11.1684 -2.02763 0)
(11.9527 -2.34986 0)
(12.6323 -2.7378 0)
(13.331 -3.07313 0)
(14.197 -3.21153 0)
(15.2014 -3.13042 0)
(16.2231 -2.90231 0)
(17.2194 -2.57127 0)
(18.2337 -2.11172 0)
(19.3389 -1.49016 0)
(20.6291 -0.660797 0)
(22.0052 0.387384 0)
(23.0851 1.51393 0)
(23.6285 2.54574 0)
(23.7839 3.44993 0)
(23.795 4.27717 0)
(23.7833 5.06902 0)
(23.7323 5.80565 0)
(23.6294 6.47659 0)
(23.5139 7.11819 0)
(23.3893 7.73256 0)
(23.2651 8.29149 0)
(23.1949 8.81323 0)
(23.1894 9.32319 0)
(23.1967 9.78542 0)
(23.1912 10.1613 0)
(0.289935 0.000106249 0)
(0.946565 -0.00657704 0)
(1.6589 -0.0208429 0)
(2.42193 -0.0345829 0)
(3.22829 -0.0432307 0)
(4.00263 -0.0614785 0)
(4.6464 -0.110132 0)
(5.15212 -0.185231 0)
(5.62988 -0.259236 0)
(6.16135 -0.327582 0)
(6.74858 -0.422621 0)
(7.39606 -0.576646 0)
(8.13338 -0.797692 0)
(8.93061 -1.07299 0)
(9.73794 -1.35226 0)
(10.5507 -1.59764 0)
(11.3606 -1.84164 0)
(12.1694 -2.11525 0)
(12.8889 -2.46188 0)
(13.5239 -2.85233 0)
(14.2453 -3.13567 0)
(15.135 -3.20447 0)
(16.1065 -3.07852 0)
(17.0599 -2.82422 0)
(17.9871 -2.45292 0)
(18.9548 -1.92653 0)
(20.0787 -1.19621 0)
(21.3398 -0.249045 0)
(22.4598 0.836341 0)
(23.1401 1.89535 0)
(23.4033 2.84833 0)
(23.46 3.7134 0)
(23.462 4.53574 0)
(23.4357 5.32324 0)
(23.3495 6.04794 0)
(23.2264 6.72566 0)
(23.0958 7.38465 0)
(22.9663 8.00344 0)
(22.8694 8.56841 0)
(22.8356 9.10748 0)
(22.8371 9.62012 0)
(22.8327 10.0711 0)
(22.822 10.4402 0)
(0.302371 0.000155794 0)
(0.987909 -0.00622179 0)
(1.72123 -0.0206135 0)
(2.48168 -0.0380253 0)
(3.27597 -0.0486789 0)
(4.06471 -0.05671 0)
(4.7573 -0.0853014 0)
(5.29567 -0.14975 0)
(5.75222 -0.228171 0)
(6.24654 -0.292675 0)
(6.81855 -0.353992 0)
(7.46458 -0.44845 0)
(8.20192 -0.60157 0)
(9.03074 -0.826987 0)
(9.86903 -1.11868 0)
(10.6875 -1.40862 0)
(11.5042 -1.65821 0)
(12.3128 -1.90336 0)
(13.0745 -2.18984 0)
(13.7129 -2.55705 0)
(14.3249 -2.92423 0)
(15.0714 -3.13947 0)
(15.9571 -3.14466 0)
(16.8735 -2.98337 0)
(17.751 -2.70076 0)
(18.608 -2.28372 0)
(19.5803 -1.66311 0)
(20.7089 -0.817914 0)
(21.8099 0.199204 0)
(22.5913 1.25531 0)
(22.9675 2.24168 0)
(23.0889 3.14514 0)
(23.1124 3.99439 0)
(23.1045 4.81639 0)
(23.0449 5.59259 0)
(22.9279 6.31136 0)
(22.7895 7.00225 0)
(22.6563 7.66758 0)
(22.5472 8.28329 0)
(22.4877 8.85673 0)
(22.4759 9.40316 0)
(22.4717 9.90862 0)
(22.46 10.349 0)
(22.4491 10.7133 0)
(0.316957 -4.74627e-05 0)
(1.02967 -0.00668783 0)
(1.781 -0.0198456 0)
(2.54269 -0.0376242 0)
(3.32083 -0.0525307 0)
(4.10521 -0.0594355 0)
(4.83177 -0.071554 0)
(5.42304 -0.115666 0)
(5.89039 -0.192872 0)
(6.34939 -0.267565 0)
(6.88367 -0.320573 0)
(7.50832 -0.373776 0)
(8.22558 -0.462339 0)
(9.05494 -0.609157 0)
(9.94058 -0.84372 0)
(10.7804 -1.15446 0)
(11.5928 -1.44905 0)
(12.4003 -1.69744 0)
(13.1793 -1.94509 0)
(13.8574 -2.25131 0)
(14.4239 -2.62335 0)
(15.033 -2.94253 0)
(15.7947 -3.08372 0)
(16.6501 -3.03552 0)
(17.4966 -2.8435 0)
(18.2846 -2.53189 0)
(19.1139 -2.04355 0)
(20.1123 -1.3099 0)
(21.1552 -0.380387 0)
(21.9953 0.643239 0)
(22.4778 1.6424 0)
(22.6766 2.57474 0)
(22.7357 3.45109 0)
(22.7432 4.29713 0)
(22.7093 5.11351 0)
(22.6134 5.8767 0)
(22.4754 6.59782 0)
(22.3366 7.29396 0)
(22.2214 7.9537 0)
(22.1456 8.56895 0)
(22.1168 9.14842 0)
(22.108 9.69217 0)
(22.0979 10.1878 0)
(22.084 10.6177 0)
(22.0765 10.9812 0)
(0.335556 -0.000369635 0)
(1.07576 -0.00814108 0)
(1.83894 -0.0206079 0)
(2.6 -0.0357361 0)
(3.36245 -0.0514706 0)
(4.13211 -0.0615769 0)
(4.87099 -0.0676435 0)
(5.51193 -0.0898932 0)
(6.0219 -0.15106 0)
(6.47287 -0.235154 0)
(6.96771 -0.302199 0)
(7.55396 -0.342731 0)
(8.23941 -0.385554 0)
(9.03506 -0.461708 0)
(9.93709 -0.601944 0)
(10.8303 -0.853168 0)
(11.6421 -1.17928 0)
(12.4352 -1.46942 0)
(13.2156 -1.71304 0)
(13.9292 -1.96976 0)
(14.509 -2.29439 0)
(15.028 -2.64838 0)
(15.646 -2.90136 0)
(16.4027 -2.97158 0)
(17.2053 -2.87842 0)
(17.9612 -2.6599 0)
(18.6761 -2.3056 0)
(19.533 -1.71003 0)
(20.5021 -0.881549 0)
(21.3616 0.0801406 0)
(21.9347 1.06841 0)
(22.2181 2.01406 0)
(22.328 2.91076 0)
(22.3568 3.77451 0)
(22.3437 4.61831 0)
(22.2759 5.4222 0)
(22.1523 6.17677 0)
(22.0131 6.89552 0)
(21.8926 7.58443 0)
(21.8072 8.23858 0)
(21.7641 8.85551 0)
(21.7458 9.43462 0)
(21.7339 9.9712 0)
(21.7236 10.4564 0)
(21.7077 10.8765 0)
(21.7057 11.2445 0)
(0.358929 -0.000658566 0)
(1.12871 -0.0100928 0)
(1.90005 -0.0233111 0)
(2.65345 -0.0361775 0)
(3.39891 -0.048325 0)
(4.14923 -0.0587022 0)
(4.88546 -0.0654525 0)
(5.55685 -0.075641 0)
(6.11853 -0.112265 0)
(6.59538 -0.187541 0)
(7.07254 -0.273676 0)
(7.61773 -0.331254 0)
(8.2636 -0.358079 0)
(9.01508 -0.387026 0)
(9.885 -0.44598 0)
(10.8172 -0.58595 0)
(11.6703 -0.858873 0)
(12.4368 -1.19011 0)
(13.1973 -1.46692 0)
(13.9254 -1.70636 0)
(14.5428 -1.97857 0)
(15.0348 -2.30944 0)
(15.5331 -2.62198 0)
(16.1569 -2.79989 0)
(16.883 -2.80619 0)
(17.6096 -2.67488 0)
(18.2645 -2.43137 0)
(18.9714 -1.99499 0)
(19.846 -1.28832 0)
(20.6974 -0.409719 0)
(21.3392 0.5402 0)
(21.7093 1.48054 0)
(21.8821 2.38519 0)
(21.9452 3.25848 0)
(21.9527 4.11588 0)
(21.9136 4.95093 0)
(21.8154 5.74004 0)
(21.686 6.48148 0)
(21.5646 7.18789 0)
(21.472 7.86837 0)
(21.4183 8.52002 0)
(21.3905 9.13601 0)
(21.3718 9.71013 0)
(21.3627 10.2392 0)
(21.3507 10.7122 0)
(21.3323 11.1263 0)
(21.3351 11.5021 0)
(0.386945 -0.000916657 0)
(1.18926 -0.0120214 0)
(1.96859 -0.0269776 0)
(2.70942 -0.0402964 0)
(3.43287 -0.0486952 0)
(4.15943 -0.0544402 0)
(4.8845 -0.05944 0)
(5.56883 -0.0665147 0)
(6.17026 -0.0857104 0)
(6.68781 -0.136496 0)
(7.17864 -0.221273 0)
(7.70032 -0.30702 0)
(8.30301 -0.352741 0)
(9.01279 -0.364384 0)
(9.83109 -0.375512 0)
(10.7512 -0.417977 0)
(11.6591 -0.567992 0)
(12.4378 -0.861065 0)
(13.1503 -1.18313 0)
(13.8619 -1.44127 0)
(14.5079 -1.68152 0)
(15.0167 -1.96857 0)
(15.4487 -2.2853 0)
(15.9413 -2.53838 0)
(16.5543 -2.64039 0)
(17.2246 -2.59039 0)
(17.854 -2.43012 0)
(18.4477 -2.14096 0)
(19.1914 -1.59028 0)
(20.0106 -0.809455 0)
(20.695 0.0782048 0)
(21.1489 0.992568 0)
(21.3931 1.88889 0)
(21.5047 2.76217 0)
(21.5389 3.61961 0)
(21.5268 4.46933 0)
(21.4609 5.28916 0)
(21.3523 6.05558 0)
(21.2372 6.77601 0)
(21.1416 7.47033 0)
(21.0794 8.14519 0)
(21.0432 8.79406 0)
(21.0175 9.40542 0)
(21.0038 9.97426 0)
(20.9969 10.4938 0)
(20.9779 10.9545 0)
(20.9589 11.3676 0)
(20.963 11.7512 0)
(0.418887 -0.00112257 0)
(1.25736 -0.0137942 0)
(2.04574 -0.0307987 0)
(2.77555 -0.0464719 0)
(3.47311 -0.055091 0)
(4.17061 -0.0560796 0)
(4.87547 -0.0542107 0)
(5.56164 -0.0563527 0)
(6.18735 -0.0681796 0)
(6.73946 -0.0980002 0)
(7.2581 -0.158908 0)
(7.78704 -0.250523 0)
(8.35678 -0.333357 0)
(9.0223 -0.363676 0)
(9.79535 -0.35847 0)
(10.6704 -0.349321 0)
(11.597 -0.383314 0)
(12.429 -0.55297 0)
(13.1175 -0.8566 0)
(13.7711 -1.15601 0)
(14.4133 -1.39516 0)
(14.9518 -1.64213 0)
(15.364 -1.93283 0)
(15.7626 -2.21343 0)
(16.2482 -2.39702 0)
(16.8298 -2.42743 0)
(17.4248 -2.33185 0)
(17.963 -2.14527 0)
(18.5649 -1.76882 0)
(19.3136 -1.11547 0)
(20.0146 -0.304728 0)
(20.5389 0.565493 0)
(20.8601 1.43742 0)
(21.0312 2.29753 0)
(21.1044 3.14533 0)
(21.1182 3.99063 0)
(21.085 4.82794 0)
(21.0071 5.6201 0)
(20.9075 6.35579 0)
(20.8145 7.0576 0)
(20.7479 7.74321 0)
(20.7043 8.41296 0)
(20.6722 9.05666 0)
(20.6518 9.6633 0)
(20.6452 10.2262 0)
(20.6322 10.7328 0)
(20.6067 11.1844 0)
(20.5876 11.5997 0)
(20.5877 11.9892 0)
(0.453307 -0.00118779 0)
(1.33274 -0.0151728 0)
(2.13158 -0.0347013 0)
(2.85507 -0.0529861 0)
(3.52996 -0.0654579 0)
(4.19656 -0.0668691 0)
(4.87126 -0.0591168 0)
(5.54686 -0.0505016 0)
(6.18568 -0.0535512 0)
(6.76158 -0.0727486 0)
(7.30057 -0.11008 0)
(7.85201 -0.17722 0)
(8.41956 -0.274982 0)
(9.03942 -0.349502 0)
(9.76849 -0.360561 0)
(10.5968 -0.336667 0)
(11.5016 -0.309263 0)
(12.38 -0.348071 0)
(13.1029 -0.54085 0)
(13.7007 -0.840607 0)
(14.2894 -1.10854 0)
(14.8398 -1.33443 0)
(15.2624 -1.58881 0)
(15.6049 -1.86347 0)
(15.9827 -2.09167 0)
(16.4542 -2.20171 0)
(16.9887 -2.17051 0)
(17.4988 -2.0437 0)
(17.9933 -1.80781 0)
(18.6282 -1.3201 0)
(19.3169 -0.606424 0)
(19.8883 0.205232 0)
(20.2863 1.04328 0)
(20.5224 1.87637 0)
(20.6467 2.70545 0)
(20.6928 3.5328 0)
(20.6879 4.36666 0)
(20.6444 5.17715 0)
(20.5712 5.93107 0)
(20.4881 6.63934 0)
(20.4218 7.32772 0)
(20.3749 8.00537 0)
(20.3364 8.66845 0)
(20.3084 9.3073 0)
(20.2979 9.91035 0)
(20.2904 10.4631 0)
(20.2682 10.9565 0)
(20.2389 11.403 0)
(20.217 11.8208 0)
(20.2097 12.2144 0)
(0.488628 -0.00118625 0)
(1.41399 -0.0159187 0)
(2.22737 -0.0382826 0)
(2.94702 -0.0596642 0)
(3.60817 -0.0764976 0)
(4.24894 -0.0837489 0)
(4.89122 -0.0775065 0)
(5.54042 -0.0605067 0)
(6.17934 -0.0476628 0)
(6.77109 -0.0547697 0)
(7.32054 -0.0797987 0)
(7.88185 -0.11901 0)
(8.47163 -0.191728 0)
(9.07032 -0.293182 0)
(9.74308 -0.351299 0)
(10.5276 -0.340141 0)
(11.393 -0.296491 0)
(12.2829 -0.259218 0)
(13.065 -0.315699 0)
(13.668 -0.527292 0)
(14.1824 -0.808308 0)
(14.6979 -1.04377 0)
(15.1398 -1.26498 0)
(15.4598 -1.51863 0)
(15.7571 -1.75758 0)
(16.1208 -1.92262 0)
(16.5709 -1.96293 0)
(17.0472 -1.88552 0)
(17.483 -1.73054 0)
(17.9875 -1.40667 0)
(18.6206 -0.824604 0)
(19.2151 -0.0880156 0)
(19.6767 0.707689 0)
(19.9819 1.50891 0)
(20.1625 2.30916 0)
(20.2514 3.11135 0)
(20.275 3.92302 0)
(20.2623 4.73279 0)
(20.222 5.50291 0)
(20.1588 6.22118 0)
(20.0979 6.90906 0)
(20.0527 7.5863 0)
(20.0119 8.2542 0)
(19.9755 8.91111 0)
(19.9573 9.54757 0)
(19.952 10.1445 0)
(19.937 10.6838 0)
(19.9076 11.1664 0)
(19.8739 11.6099 0)
(19.8465 12.0298 0)
(19.8291 12.4261 0)
(0.524251 -0.00121645 0)
(1.49896 -0.0161756 0)
(2.33386 -0.0408533 0)
(3.05101 -0.066485 0)
(3.70465 -0.0869532 0)
(4.3299 -0.101259 0)
(4.94825 -0.10359 0)
(5.56409 -0.0895334 0)
(6.18477 -0.0638774 0)
(6.78254 -0.0501269 0)
(7.33839 -0.0613758 0)
(7.89217 -0.0866389 0)
(8.4931 -0.123883 0)
(9.10805 -0.203825 0)
(9.73388 -0.30196 0)
(10.457 -0.33532 0)
(11.2801 -0.2999 0)
(12.1505 -0.238739 0)
(12.9734 -0.204461 0)
(13.6312 -0.285299 0)
(14.1201 -0.505843 0)
(14.5603 -0.757227 0)
(14.9936 -0.967018 0)
(15.325 -1.18991 0)
(15.5697 -1.42811 0)
(15.842 -1.61723 0)
(16.1959 -1.71495 0)
(16.6147 -1.69603 0)
(17.0219 -1.58766 0)
(17.4217 -1.38086 0)
(17.9512 -0.9511 0)
(18.5385 -0.312504 0)
(19.0427 0.426409 0)
(19.4141 1.1952 0)
(19.6527 1.96298 0)
(19.7909 2.73503 0)
(19.8489 3.51515 0)
(19.8637 4.3026 0)
(19.8563 5.07402 0)
(19.8217 5.80371 0)
(19.7728 6.49385 0)
(19.7328 7.16678 0)
(19.6964 7.83089 0)
(19.6556 8.48891 0)
(19.6266 9.14298 0)
(19.6176 9.77686 0)
(19.6099 10.3634 0)
(19.5869 10.8894 0)
(19.5505 11.3634 0)
(19.5111 11.8047 0)
(19.4758 12.2262 0)