/*--------------------------------*- C++ -*----------------------------------*\
| =========                 |                                                 |
| \\      /  F ield         | OpenFOAM: The Open Source CFD Toolbox           |
|  \\    /   O peration     | Version:  5.x                                   |
|   \\  /    A nd           | Web:      www.OpenFOAM.org                      |
|    \\/     M anipulation  |                                                 |
\*---------------------------------------------------------------------------*/
FoamFile
{
    version     2.0;
    format      ascii;
    class       volVectorField;
    location    "0.3";
    object      Urom;
}
// * * * * * * * * * * * * * * * * * * * * * * * * * * * * * * * * * * * * * //

dimensions      [0 1 -1 0 0 0 0];

internalField   nonuniform List<vector> 
17568
(
(17.2724 0.614881 0)
(13.1877 0.558485 0)
(20.2333 1.08262 0)
(9.51472 0.282802 0)
(20.154 1.35755 0)
(20.1095 0.789763 0)
(6.89597 0.0989259 0)
(18.9722 1.11462 0)
(20.9091 1.21403 0)
(20.0422 0.607004 0)
(5.47412 0.00742694 0)
(17.2271 0.806679 0)
(21.2593 1.14444 0)
(20.6989 1.0541 0)
(20.0314 0.482218 0)
(4.73793 -0.0200361 0)
(15.551 0.512489 0)
(20.9943 0.970031 0)
(21.3109 1.05482 0)
(20.5244 0.930579 0)
(20.0234 0.385015 0)
(4.30668 -0.0161166 0)
(14.1424 0.304416 0)
(20.3718 0.759839 0)
(21.6026 0.949877 0)
(21.0677 0.969093 0)
(20.4044 0.812619 0)
(20.017 0.308884 0)
(4.01625 -0.00756996 0)
(13.0003 0.189644 0)
(19.6105 0.58084 0)
(21.6159 0.811847 0)
(21.4299 0.888866 0)
(20.8653 0.882816 0)
(20.3123 0.702648 0)
(20.0125 0.25002 0)
(3.79172 -0.00166935 0)
(12.0866 0.133022 0)
(18.8219 0.455615 0)
(21.4506 0.679718 0)
(21.6152 0.784139 0)
(21.2012 0.821436 0)
(20.703 0.798788 0)
(20.2415 0.60444 0)
(20.0094 0.204604 0)
(3.60111 0.00120867 0)
(11.3506 0.104186 0)
(18.0624 0.371488 0)
(21.1805 0.578649 0)
(21.6825 0.681637 0)
(21.3994 0.736932 0)
(21.0094 0.757995 0)
(20.5695 0.71964 0)
(20.1878 0.51855 0)
(20.0073 0.16931 0)
(3.43387 0.0021428 0)
(10.7442 0.0870269 0)
(17.3538 0.311239 0)
(20.8536 0.505647 0)
(21.6752 0.600828 0)
(21.5122 0.654008 0)
(21.1985 0.690168 0)
(20.8479 0.699938 0)
(20.4608 0.645474 0)
(20.1471 0.444423 0)
(20.0057 0.141547 0)
(3.28721 0.00217938 0)
(10.2325 0.0747115 0)
(16.7002 0.264921 0)
(20.4962 0.449545 0)
(21.6203 0.542432 0)
(21.5782 0.586444 0)
(21.3122 0.622778 0)
(21.0282 0.64666 0)
(20.7106 0.645493 0)
(20.373 0.576289 0)
(20.1161 0.381079 0)
(20.0045 0.119393 0)
(3.15923 0.00195067 0)
(9.79264 0.0647241 0)
(16.0999 0.22789 0)
(20.1218 0.402945 0)
(21.5319 0.497994 0)
(21.618 0.536938 0)
(21.3885 0.565247 0)
(21.1388 0.592072 0)
(20.8822 0.605257 0)
(20.5946 0.593445 0)
(20.3024 0.512381 0)
(20.0926 0.327282 0)
(20.0036 0.101454 0)
(3.04744 0.00170516 0)
(9.41009 0.0563282 0)
(15.5496 0.197648 0)
(19.7383 0.362583 0)
(21.4155 0.460723 0)
(21.6404 0.499805 0)
(21.4472 0.521061 0)
(21.2146 0.543356 0)
(20.9901 0.561266 0)
(20.7563 0.56537 0)
(20.4969 0.543489 0)
(20.2459 0.454003 0)
(20.0744 0.281743 0)
(20.0029 0.0867275 0)
(2.94932 0.00149254 0)
(9.07439 0.0493033 0)
(15.0468 0.17266 0)
(19.3523 0.327016 0)
(21.2742 0.427509 0)
(21.6474 0.469195 0)
(21.4968 0.487346 0)
(21.2749 0.503651 0)
(21.0648 0.520615 0)
(20.8616 0.530413 0)
(20.6478 0.52691 0)
(20.415 0.495685 0)
(20.2007 0.401248 0)
(20.0603 0.243234 0)
(20.0024 0.0744995 0)
(2.86262 0.00130504 0)
(8.77761 0.0434515 0)
(14.5877 0.151892 0)
(18.97 0.295487 0)
(21.1114 0.397155 0)
(21.6384 0.442104 0)
(21.5395 0.459736 0)
(21.3276 0.472184 0)
(21.1245 0.485544 0)
(20.9353 0.497061 0)
(20.7502 0.49993 0)
(20.5543 0.489767 0)
(20.3466 0.450245 0)
(20.1645 0.354034 0)
(20.0492 0.210608 0)
(20.002 0.0642512 0)
(2.78559 0.00112986 0)
(8.51346 0.0385365 0)
(14.1691 0.134525 0)
(18.596 0.26752 0)
(20.9313 0.36914 0)
(21.6136 0.417342 0)
(21.575 0.43559 0)
(21.3757 0.446147 0)
(21.1769 0.456432 0)
(20.9944 0.466771 0)
(20.8226 0.473032 0)
(20.6531 0.470025 0)
(20.4739 0.453815 0)
(20.2897 0.40741 0)
(20.1355 0.312086 0)
(20.0405 0.182863 0)
(20.0016 0.0555932 0)
(2.71693 0.000964474 0)
(8.2771 0.0343367 0)
(13.7869 0.119857 0)
(18.2338 0.24271 0)
(20.7379 0.343205 0)
(21.5736 0.394361 0)
(21.6028 0.413786 0)
(21.4198 0.423397 0)
(21.2245 0.43184 0)
(21.0461 0.440319 0)
(20.8809 0.447435 0)
(20.7244 0.44876 0)
(20.5686 0.440741 0)
(20.4049 0.419002 0)
(20.2426 0.367373 0)
(20.1121 0.274999 0)
(20.0335 0.159148 0)
(20.0013 0.0482276 0)
(2.65564 0.000813723 0)
(8.06472 0.0306792 0)
(13.4377 0.107312 0)
(17.8855 0.220655 0)
(20.5351 0.319179 0)
(21.5198 0.372838 0)
(21.623 0.393776 0)
(21.4599 0.402924 0)
(21.2685 0.410191 0)
(21.0929 0.417318 0)
(20.9321 0.423842 0)
(20.7818 0.427568 0)
(20.6383 0.424407 0)
(20.4947 0.412071 0)
(20.3458 0.385369 0)
(20.2037 0.330257 0)
(20.0932 0.24229 0)
(20.0277 0.138772 0)
(20.0011 0.0419216 0)
(2.60096 0.000666045 0)
(7.87339 0.0274443 0)
(13.1183 0.0964251 0)
(17.5523 0.200961 0)
(20.3259 0.296886 0)
(21.4537 0.352563 0)
(21.6355 0.375185 0)
(21.4963 0.384234 0)
(21.3093 0.390601 0)
(21.1358 0.396805 0)
(20.9782 0.402568 0)
(20.8323 0.406928 0)
(20.6946 0.407229 0)
(20.5626 0.400119 0)
(20.4302 0.384009 0)
(20.2954 0.353032 0)
(20.1713 0.296095 0)
(20.0779 0.213459 0)
(20.0233 0.121172 0)
(20.0009 0.0364903 0)
(2.55234 0.000523817 0)
(7.70071 0.0245247 0)
(12.8259 0.0868409 0)
(17.2354 0.183264 0)
(20.1133 0.276145 0)
(21.3768 0.333365 0)
(21.6407 0.357737 0)
(21.5294 0.366977 0)
(21.3478 0.372646 0)
(21.1756 0.378074 0)
(21.0203 0.383254 0)
(20.8778 0.387499 0)
(20.7442 0.389529 0)
(20.6179 0.386528 0)
(20.496 0.37601 0)
(20.374 0.356575 0)
(20.2525 0.322133 0)
(20.1446 0.26483 0)
(20.0654 0.188026 0)
(20.0195 0.105892 0)
(20.0008 0.0317853 0)
(2.50931 0.000334564 0)
(7.54489 0.0218555 0)
(12.5578 0.0782799 0)
(16.9349 0.167256 0)
(19.8995 0.256769 0)
(21.2905 0.315087 0)
(21.6388 0.341206 0)
(21.5592 0.350873 0)
(21.3841 0.35603 0)
(21.213 0.360761 0)
(21.0592 0.365423 0)
(20.9192 0.369443 0)
(20.7893 0.372046 0)
(20.6665 0.371664 0)
(20.5499 0.3656 0)
(20.4373 0.352163 0)
(20.3251 0.329816 0)
(20.2161 0.292804 0)
(20.1223 0.236338 0)
(20.0552 0.165551 0)
(20.0164 0.0925586 0)
(20.0007 0.0276859 0)
(2.47169 0.000198008 0)
(7.40437 0.019348 0)
(12.3124 0.070515 0)
(16.6509 0.152646 0)
(19.6868 0.238597 0)
(21.1963 0.297582 0)
(21.63 0.325405 0)
(21.5857 0.335683 0)
(21.4188 0.340509 0)
(21.2488 0.344629 0)
(21.0957 0.348778 0)
(20.9574 0.352555 0)
(20.8301 0.355313 0)
(20.7107 0.356184 0)
(20.5975 0.353386 0)
(20.4897 0.344569 0)
(20.3854 0.328638 0)
(20.2825 0.303804 0)
(20.1852 0.265137 0)
(20.104 0.210444 0)
(20.0467 0.145646 0)
(20.0139 0.0808656 0)
(20.0006 0.0240936 0)
(2.43912 2.97488e-05 0)
(7.27831 0.0169203 0)
(12.0875 0.0633914 0)
(16.3835 0.139209 0)
(19.4766 0.221449 0)
(21.0956 0.280732 0)
(21.6149 0.310158 0)
(21.6091 0.321213 0)
(21.4521 0.325866 0)
(21.2833 0.329475 0)
(21.1304 0.333131 0)
(20.9931 0.336621 0)
(20.8677 0.339407 0)
(20.7511 0.340833 0)
(20.6409 0.339912 0)
(20.5361 0.334773 0)
(20.4362 0.323542 0)
(20.3396 0.305482 0)
(20.2455 0.278626 0)
(20.1591 0.239182 0)
(20.0887 0.186949 0)
(20.0397 0.127964 0)
(20.0119 0.0705593 0)
(20.0005 0.0209273 0)
(2.41197 -0.000188332 0)
(7.1654 0.0146095 0)
(11.8823 0.0566759 0)
(16.1322 0.126682 0)
(19.2706 0.205195 0)
(20.9899 0.264396 0)
(21.5939 0.295324 0)
(21.6294 0.307272 0)
(21.4842 0.311917 0)
(21.3169 0.315112 0)
(21.164 0.318324 0)
(21.027 0.321495 0)
(20.9028 0.324221 0)
(20.7883 0.325939 0)
(20.6808 0.325984 0)
(20.5786 0.323245 0)
(20.4813 0.31591 0)
(20.3886 0.302605 0)
(20.2993 0.282747 0)
(20.2137 0.254377 0)
(20.1369 0.21494 0)
(20.0759 0.165635 0)
(20.034 0.112199 0)
(20.0102 0.0614282 0)
(20.0004 0.0181201 0)
(2.38974 -0.000397774 0)
(7.06606 0.0122462 0)
(11.6949 0.0502725 0)
(15.8972 0.114928 0)
(19.0698 0.189629 0)
(20.8804 0.248495 0)
(21.5677 0.280752 0)
(21.6467 0.293704 0)
(21.5151 0.298483 0)
(21.3498 0.301376 0)
(21.1966 0.304199 0)
(21.0596 0.307058 0)
(20.9361 0.309649 0)
(20.8229 0.311527 0)
(20.7175 0.312128 0)
(20.6178 0.310759 0)
(20.5228 0.306219 0)
(20.4323 0.296887 0)
(20.3462 0.281828 0)
(20.2638 0.260493 0)
(20.1862 0.231134 0)
(20.1182 0.192372 0)
(20.0652 0.146286 0)
(20.0292 0.0980922 0)
(20.0088 0.0532951 0)
(20.0004 0.015616 0)
(2.37371 -0.000681732 0)
(6.97859 0.00982502 0)
(11.5258 0.044031 0)
(15.6777 0.103647 0)
(18.8756 0.17467 0)
(20.7684 0.232849 0)
(21.5364 0.266342 0)
(21.661 0.28034 0)
(21.5451 0.285407 0)
(21.3823 0.288104 0)
(21.2288 0.290611 0)
(21.0915 0.293183 0)
(20.9681 0.295609 0)
(20.8557 0.29754 0)
(20.7517 0.298508 0)
(20.6542 0.297959 0)
(20.5614 0.295162 0)
(20.4727 0.288886 0)
(20.3886 0.27779 0)
(20.3086 0.261273 0)
(20.2326 0.238784 0)
(20.1624 0.208955 0)
(20.1024 0.171408 0)
(20.0563 0.128692 0)
(20.0252 0.0854146 0)
(20.0076 0.0460107 0)
(20.0003 0.0133681 0)
(2.36267 -0.000947373 0)
(6.90555 0.00719634 0)
(11.3726 0.037785 0)
(15.4746 0.0927268 0)
(18.6884 0.160011 0)
(20.6551 0.217434 0)
(21.5011 0.251921 0)
(21.6727 0.267055 0)
(21.574 0.272525 0)
(21.4145 0.27515 0)
(21.2605 0.277413 0)
(21.1228 0.279747 0)
(20.9994 0.282006 0)
(20.8873 0.283924 0)
(20.7841 0.285125 0)
(20.688 0.28514 0)
(20.5971 0.283426 0)
(20.5104 0.27921 0)
(20.4278 0.271311 0)
(20.3493 0.258695 0)
(20.275 0.240994 0)
(20.2053 0.217684 0)
(20.1421 0.18787 0)
(20.089 0.151955 0)
(20.0488 0.112661 0)
(20.0218 0.0739699 0)
(20.0066 0.0394482 0)
(20.0003 0.0113372 0)
(2.36034 -0.00143262 0)
(6.84312 0.00440419 0)
(11.238 0.0313783 0)
(15.2862 0.0818427 0)
(18.51 0.145681 0)
(20.5416 0.201902 0)
(21.4624 0.237431 0)
(21.6818 0.253675 0)
(21.6021 0.259697 0)
(21.4466 0.262353 0)
(21.2923 0.264468 0)
(21.1538 0.266618 0)
(21.03 0.268738 0)
(20.918 0.270612 0)
(20.8153 0.271954 0)
(20.72 0.272376 0)
(20.6306 0.271414 0)
(20.5457 0.268533 0)
(20.4645 0.262936 0)
(20.3872 0.253559 0)
(20.3141 0.23967 0)
(20.2452 0.221043 0)
(20.1814 0.197249 0)
(20.1246 0.167884 0)
(20.0777 0.133905 0)
(20.0425 0.0980078 0)
(20.0191 0.0635871 0)
(20.0058 0.0334998 0)
(20.0002 0.00948912 0)
(2.3629 -0.00179892 0)
(6.79953 0.00108026 0)
(11.1173 0.0245361 0)
(15.1155 0.0709638 0)
(18.34 0.131162 0)
(20.4295 0.186439 0)
(21.4209 0.222597 0)
(21.6885 0.240078 0)
(21.6294 0.246749 0)
(21.4787 0.249575 0)
(21.3241 0.251626 0)
(21.1846 0.253669 0)
(21.0601 0.255691 0)
(20.948 0.25753 0)
(20.8455 0.258957 0)
(20.7508 0.259669 0)
(20.6623 0.259276 0)
(20.5787 0.257329 0)
(20.499 0.253294 0)
(20.423 0.246383 0)
(20.3507 0.2357 0)
(20.2826 0.22077 0)
(20.2189 0.20147 0)
(20.1605 0.177523 0)
(20.1095 0.148978 0)
(20.0681 0.117146 0)
(20.0372 0.0845719 0)
(20.0168 0.0541171 0)
(20.0051 0.0280727 0)
(20.0002 0.00779213 0)
(2.3805 -0.00274826 0)
(6.7639 -0.00254387 0)
(11.0198 0.0171201 0)
(14.9583 0.0594122 0)
(18.181 0.116548 0)
(20.319 0.170428 0)
(21.3774 0.207435 0)
(21.6933 0.226085 0)
(21.656 0.233538 0)
(21.5108 0.236642 0)
(21.3561 0.238746 0)
(21.2156 0.240758 0)
(21.0903 0.242746 0)
(20.9776 0.244579 0)
(20.8751 0.246076 0)
(20.7806 0.247003 0)
(20.6927 0.247045 0)
(20.61 0.245817 0)
(20.5317 0.24289 0)
(20.4569 0.237732 0)
(20.3855 0.229599 0)
(20.3179 0.217794 0)
(20.2545 0.20205 0)
(20.1956 0.182322 0)
(20.1425 0.158535 0)
(20.0966 0.131115 0)
(20.06 0.101561 0)
(20.0329 0.0722001 0)
(20.0148 0.0454299 0)
(20.0046 0.023077 0)
(20.0002 0.00622794 0)
(2.40168 -0.00331083 0)
(6.75904 -0.0075672 0)
(10.932 0.00873575 0)
(14.8226 0.0473569 0)
(18.0312 0.101032 0)
(20.2125 0.15397 0)
(21.3326 0.191483 0)
(21.6965 0.211484 0)
(21.6821 0.219864 0)
(21.5433 0.223411 0)
(21.3887 0.225665 0)
(21.2468 0.227743 0)
(21.1205 0.22977 0)
(21.0072 0.231651 0)
(20.9043 0.233237 0)
(20.8098 0.234343 0)
(20.7222 0.234727 0)
(20.6401 0.23407 0)
(20.5625 0.232 0)
(20.4889 0.228108 0)
(20.4185 0.221875 0)
(20.3514 0.212638 0)
(20.2883 0.1999 0)
(20.2293 0.183554 0)
(20.1751 0.16364 0)
(20.1267 0.140298 0)
(20.0857 0.114241 0)
(20.053 0.0870319 0)
(20.0291 0.0607562 0)
(20.0132 0.037398 0)
(20.0041 0.0184624 0)
(20.0002 0.00477141 0)
(2.45329 -0.00537982 0)
(6.75457 -0.0127804 0)
(10.88 -0.00128437 0)
(14.6975 0.0336725 0)
(17.8963 0.0848659 0)
(20.1093 0.1363 0)
(21.2877 0.174727 0)
(21.6983 0.195975 0)
(21.7078 0.205498 0)
(21.5762 0.209647 0)
(21.4218 0.212217 0)
(21.2786 0.214467 0)
(21.1509 0.216624 0)
(21.0367 0.218621 0)
(20.9332 0.22034 0)
(20.8385 0.221631 0)
(20.7511 0.222305 0)
(20.6693 0.222114 0)
(20.5923 0.22074 0)
(20.5194 0.217832 0)
(20.4499 0.213004 0)
(20.3837 0.205762 0)
(20.3207 0.195553 0)
(20.2617 0.182068 0)
(20.207 0.165321 0)
(20.157 0.145453 0)
(20.113 0.122807 0)
(20.0762 0.0982884 0)
(20.0472 0.0734455 0)
(20.026 0.0501013 0)
(20.0118 0.0299437 0)
(20.0037 0.0141538 0)
(20.0002 0.00339709 0)
(2.50727 -0.00633186 0)
(6.80988 -0.0226003 0)
(10.8271 -0.0128906 0)
(14.6042 0.018337 0)
(17.7701 0.0666055 0)
(20.0135 0.117562 0)
(21.2431 0.15649 0)
(21.6996 0.179422 0)
(21.7336 0.190165 0)
(21.6098 0.195147 0)
(21.4556 0.198186 0)
(21.3109 0.200754 0)
(21.1818 0.20315 0)
(21.0664 0.205353 0)
(20.9622 0.20727 0)
(20.8671 0.208781 0)
(20.7794 0.209737 0)
(20.6978 0.209944 0)
(20.6211 0.209153 0)
(20.5487 0.207057 0)
(20.4799 0.203326 0)
(20.4144 0.1976 0)
(20.3519 0.18943 0)
(20.2929 0.178396 0)
(20.2378 0.164344 0)
(20.187 0.14739 0)
(20.1412 0.127784 0)
(20.1012 0.106041 0)
(20.0681 0.0831853 0)
(20.0422 0.060679 0)
(20.0234 0.0401445 0)
(20.0108 0.0229569 0)
(20.0034 0.010083 0)
(20.0001 0.00209219 0)
(2.61394 -0.0134281 0)
(6.84877 -0.0290831 0)
(10.8411 -0.0298854 0)
(14.5138 3.27643e-05 0)
(17.666 0.0463687 0)
(19.9223 0.0964252 0)
(21.2008 0.136684 0)
(21.7006 0.16123 0)
(21.7595 0.173623 0)
(21.6441 0.179628 0)
(21.4905 0.183349 0)
(21.3442 0.186399 0)
(21.2133 0.189172 0)
(21.0965 0.191692 0)
(20.9914 0.193893 0)
(20.8956 0.195686 0)
(20.8076 0.196949 0)
(20.7258 0.197535 0)
(20.6493 0.19725 0)
(20.5772 0.195843 0)
(20.5089 0.193027 0)
(20.4439 0.188499 0)
(20.3819 0.181927 0)
(20.3232 0.172926 0)
(20.2678 0.161212 0)
(20.2164 0.146764 0)
(20.1693 0.129787 0)
(20.1273 0.110635 0)
(20.0911 0.0899651 0)
(20.0613 0.0688402 0)
(20.0381 0.0486439 0)
(20.0211 0.0307593 0)
(20.0098 0.0163376 0)
(20.0031 0.00621464 0)
(20.0001 0.000833674 0)
(2.80494 -0.00767472 0)
(7.00656 -0.0594897 0)
(10.8289 -0.0473005 0)
(14.4785 -0.0239311 0)
(17.5679 0.0223434 0)
(19.8435 0.0726039 0)
(21.1603 0.114254 0)
(21.7024 0.141071 0)
(21.7862 0.15536 0)
(21.6796 0.162765 0)
(21.5266 0.167423 0)
(21.3784 0.171158 0)
(21.2456 0.174486 0)
(21.1273 0.177461 0)
(21.0209 0.180059 0)
(20.9243 0.182216 0)
(20.8357 0.183845 0)
(20.7536 0.184828 0)
(20.677 0.185017 0)
(20.605 0.184219 0)
(20.5369 0.182191 0)
(20.4724 0.178666 0)
(20.4109 0.173373 0)
(20.3524 0.166017 0)
(20.2969 0.156292 0)
(20.2451 0.144044 0)
(20.1971 0.129362 0)
(20.1537 0.112528 0)
(20.1152 0.0940008 0)
(20.0823 0.074524 0)
(20.0555 0.055182 0)
(20.0346 0.0372162 0)
(20.0194 0.0218304 0)
(20.0091 0.0100276 0)
(20.0029 0.00247609 0)
(20.0001 -0.000399961 0)
(2.76369 -0.120052 0)
(7.14674 -0.0555164 0)
(10.9527 -0.0877309 0)
(14.4291 -0.0515764 0)
(17.5064 -0.00812455 0)
(19.7701 0.0445972 0)
(21.1253 0.0884086 0)
(21.7053 0.118114 0)
(21.8138 0.134849 0)
(21.7163 0.144113 0)
(21.5641 0.150043 0)
(21.4139 0.154752 0)
(21.2789 0.158837 0)
(21.1587 0.162452 0)
(21.0509 0.165589 0)
(20.9532 0.168225 0)
(20.8638 0.1703 0)
(20.7813 0.171732 0)
(20.7043 0.172406 0)
(20.6324 0.172176 0)
(20.5644 0.17085 0)
(20.5 0.168201 0)
(20.4389 0.163989 0)
(20.3806 0.157973 0)
(20.3253 0.149904 0)
(20.2732 0.139568 0)
(20.2247 0.126926 0)
(20.1801 0.112159 0)
(20.1399 0.0956228 0)
(20.1047 0.0778554 0)
(20.0748 0.0596726 0)
(20.0506 0.0421038 0)
(20.0318 0.0262835 0)
(20.018 0.0132782 0)
(20.0085 0.00391629 0)
(20.0028 -0.00118981 0)
(20.0001 -0.00162957 0)
(7.44341 -0.223472 0)
(4.42553 -0.226499 0)
(11.0064 -0.119772 0)
(14.4813 -0.102736 0)
(17.4446 -0.0442252 0)
(19.7172 0.00909834 0)
(21.094 0.0580851 0)
(21.7109 0.0912098 0)
(21.8429 0.111434 0)
(21.7549 0.123025 0)
(21.6034 0.130791 0)
(21.451 0.136792 0)
(21.3135 0.141942 0)
(21.1911 0.146411 0)
(21.0815 0.150278 0)
(20.9825 0.153537 0)
(20.8921 0.156172 0)
(20.8089 0.158133 0)
(20.7316 0.159339 0)
(20.6594 0.15968 0)
(20.5914 0.159012 0)
(20.5271 0.157153 0)
(20.466 0.15389 0)
(20.4081 0.149017 0)
(20.3529 0.142328 0)
(20.3007 0.133626 0)
(20.2517 0.122792 0)
(20.2064 0.109889 0)
(20.1649 0.0951754 0)
(20.128 0.0790649 0)
(20.0957 0.0621775 0)
(20.0686 0.0453281 0)
(20.0465 0.0295075 0)
(20.0294 0.0157537 0)
(20.0168 0.00497185 0)
(20.0081 -0.00208187 0)
(20.0027 -0.00484427 0)
(20.0001 -0.00284148 0)
(11.2947 -0.284895 0)
(7.89402 -0.385786 0)
(2.02794 0.397441 0)
(5.82404 -0.262606 0)
(14.4932 -0.158025 0)
(17.4434 -0.10444 0)
(19.6694 -0.0333813 0)
(21.0729 0.0194378 0)
(21.7193 0.0595534 0)
(21.8744 0.0837199 0)
(21.7957 0.0989211 0)
(21.6448 0.108971 0)
(21.4898 0.116863 0)
(21.3494 0.123407 0)
(21.2245 0.129048 0)
(21.113 0.133868 0)
(21.0125 0.137943 0)
(20.9209 0.141287 0)
(20.8368 0.14389 0)
(20.7589 0.145707 0)
(20.6862 0.146662 0)
(20.618 0.146651 0)
(20.5536 0.145532 0)
(20.4926 0.143137 0)
(20.4347 0.139276 0)
(20.3798 0.133774 0)
(20.3276 0.126466 0)
(20.2783 0.117217 0)
(20.2324 0.105998 0)
(20.19 0.0929592 0)
(20.1516 0.0784144 0)
(20.1175 0.0628492 0)
(20.088 0.0469057 0)
(20.0632 0.031409 0)
(20.0433 0.0173006 0)
(20.0277 0.0054876 0)
(20.016 -0.00319448 0)
(20.0078 -0.00806618 0)
(20.0026 -0.00844719 0)
(20.0001 -0.00401585 0)
(14.6531 -0.319513 0)
(11.4673 -0.462602 0)
(8.61448 -0.503835 0)
(0.748555 0.981323 0)
(3.71321 0.136828 0)
(7.00195 -0.511411 0)
(17.4321 -0.17547 0)
(19.6531 -0.099659 0)
(21.057 -0.0272926 0)
(21.7328 0.0190943 0)
(21.9088 0.0509828 0)
(21.839 0.0703318 0)
(21.6885 0.0839968 0)
(21.5307 0.0942658 0)
(21.387 0.102805 0)
(21.2594 0.109967 0)
(21.1456 0.116064 0)
(21.0431 0.121193 0)
(20.9502 0.125441 0)
(20.8649 0.128836 0)
(20.7862 0.131375 0)
(20.7129 0.133021 0)
(20.6444 0.133704 0)
(20.5798 0.133322 0)
(20.5188 0.131744 0)
(20.4609 0.128816 0)
(20.4059 0.124378 0)
(20.3537 0.118286 0)
(20.3044 0.11042 0)
(20.2581 0.10071 0)
(20.2149 0.0892129 0)
(20.1755 0.0761413 0)
(20.1399 0.0618765 0)
(20.1085 0.0469306 0)
(20.0815 0.0319784 0)
(20.059 0.0178327 0)
(20.0407 0.00534572 0)
(20.0264 -0.00463292 0)
(20.0155 -0.0113541 0)
(20.0078 -0.0139672 0)
(20.0027 -0.0119391 0)
(20.0001 -0.00516991 0)
(17.4914 -0.330951 0)
(14.7393 -0.49648 0)
(11.7435 -0.643534 0)
(9.47014 -0.733887 0)
(0.343013 1.19199 0)
(2.22263 0.484362 0)
(4.94002 -0.247466 0)
(7.96961 -0.926309 0)
(19.6378 -0.180895 0)
(21.0553 -0.096546 0)
(21.7505 -0.0303043 0)
(21.9466 0.00934871 0)
(21.8853 0.0364394 0)
(21.7349 0.054438 0)
(21.5739 0.0683677 0)
(21.4264 0.0794546 0)
(21.2956 0.0887303 0)
(21.1791 0.0964783 0)
(21.0747 0.102985 0)
(20.98 0.108382 0)
(20.8935 0.112768 0)
(20.8137 0.116181 0)
(20.7398 0.11863 0)
(20.6707 0.120081 0)
(20.6058 0.12047 0)
(20.5445 0.119704 0)
(20.4866 0.117663 0)
(20.4315 0.114211 0)
(20.3793 0.10922 0)
(20.33 0.102581 0)
(20.2833 0.0942181 0)
(20.2397 0.0841341 0)
(20.1993 0.0724483 0)
(20.1627 0.0594457 0)
(20.1298 0.0455346 0)
(20.1009 0.0312671 0)
(20.0762 0.0173263 0)
(20.0556 0.00447337 0)
(20.0388 -0.00647859 0)
(20.0255 -0.0147616 0)
(20.0153 -0.0194007 0)
(20.0078 -0.0196843 0)
(20.0028 -0.0153688 0)
(20.0001 -0.0063324 0)
(19.6485 -0.328013 0)
(17.511 -0.507292 0)
(14.8171 -0.697257 0)
(12.1996 -0.893382 0)
(10.2578 -1.09873 0)
(0.182123 1.35796 0)
(1.30065 0.723407 0)
(3.26897 -0.0116591 0)
(5.90323 -0.739663 0)
(8.64651 -1.44612 0)
(21.0552 -0.183386 0)
(21.774 -0.100449 0)
(21.988 -0.0418911 0)
(21.9351 -0.00620226 0)
(21.7845 0.0193339 0)
(21.6198 0.0378377 0)
(21.468 0.0526748 0)
(21.3335 0.0646819 0)
(21.2141 0.0746624 0)
(21.1072 0.0829426 0)
(21.0106 0.089815 0)
(20.9225 0.0954402 0)
(20.8416 0.0999271 0)
(20.7667 0.10333 0)
(20.6969 0.105659 0)
(20.6316 0.106892 0)
(20.57 0.10697 0)
(20.5118 0.105809 0)
(20.4567 0.103303 0)
(20.4044 0.0993419 0)
(20.3549 0.0938247 0)
(20.3081 0.0866821 0)
(20.2641 0.0778903 0)
(20.2232 0.0675051 0)
(20.1856 0.0557236 0)
(20.1515 0.042859 0)
(20.1211 0.0293621 0)
(20.0946 0.015804 0)
(20.072 0.00284034 0)
(20.0531 -0.00878623 0)
(20.0376 -0.0183336 0)
(20.0253 -0.0247506 0)
(20.0155 -0.0271901 0)
(20.0081 -0.0252956 0)
(20.0029 -0.0188194 0)
(20.0002 -0.00752211 0)
(21.0587 -0.321355 0)
(19.6289 -0.50133 0)
(17.4941 -0.708606 0)
(14.966 -0.962621 0)
(12.6845 -1.23252 0)
(10.8147 -1.54064 0)
(0.0420361 1.423 0)
(0.736669 0.877766 0)
(1.99702 0.172567 0)
(4.04307 -0.567943 0)
(6.59054 -1.33832 0)
(8.8974 -1.90888 0)
(21.7973 -0.189588 0)
(22.0322 -0.111964 0)
(21.9878 -0.0588898 0)
(21.8371 -0.0242757 0)
(21.6684 0.00158386 0)
(21.5118 0.0212522 0)
(21.3733 0.0371154 0)
(21.2504 0.0499904 0)
(21.1408 0.0606137 0)
(21.042 0.0693694 0)
(20.9522 0.0765622 0)
(20.8699 0.0823748 0)
(20.7939 0.0869307 0)
(20.7233 0.0902892 0)
(20.6573 0.0924729 0)
(20.5953 0.0934653 0)
(20.5368 0.0932167 0)
(20.4815 0.0916522 0)
(20.4291 0.0886861 0)
(20.3794 0.0842299 0)
(20.3325 0.0782189 0)
(20.2882 0.0706199 0)
(20.2468 0.061454 0)
(20.2085 0.0508482 0)
(20.1735 0.0390307 0)
(20.1419 0.0263637 0)
(20.114 0.0133161 0)
(20.0896 0.000447341 0)
(20.0689 -0.0115878 0)
(20.0515 -0.0221057 0)
(20.0373 -0.0300258 0)
(20.0256 -0.0344115 0)
(20.016 -0.0348275 0)
(20.0085 -0.0309289 0)
(20.0031 -0.0223473 0)
(20.0002 -0.00875458 0)
(21.8149 -0.318821 0)
(21.034 -0.488156 0)
(19.5664 -0.696688 0)
(17.4743 -0.967537 0)
(15.124 -1.29462 0)
(13.0367 -1.61192 0)
(11.0064 -1.95283 0)
(-0.130446 1.40429 0)
(0.264425 0.955649 0)
(1.08743 0.261972 0)
(2.4031 -0.439245 0)
(4.61202 -1.218 0)
(6.9598 -1.82278 0)
(9.20757 -2.1981 0)
(22.0746 -0.201425 0)
(22.0423 -0.128618 0)
(21.8923 -0.0781263 0)
(21.7195 -0.0428957 0)
(21.558 -0.0159878 0)
(21.4148 0.00491863 0)
(21.2883 0.0217482 0)
(21.1757 0.0354039 0)
(21.0743 0.0466025 0)
(20.9825 0.0557761 0)
(20.8987 0.0632425 0)
(20.8214 0.0692027 0)
(20.7497 0.0737902 0)
(20.683 0.0770748 0)
(20.6204 0.0790874 0)
(20.5615 0.0798173 0)
(20.5059 0.079227 0)
(20.4534 0.0772541 0)
(20.4035 0.0738327 0)
(20.3563 0.0689002 0)
(20.3119 0.0624261 0)
(20.2701 0.0544129 0)
(20.2313 0.0449368 0)
(20.1955 0.0341617 0)
(20.163 0.0223629 0)
(20.1338 0.00992544 0)
(20.1081 -0.00268238 0)
(20.0858 -0.0148967 0)
(20.0669 -0.0261085 0)
(20.051 -0.0352445 0)
(20.0376 -0.0413225 0)
(20.0263 -0.0438668 0)
(20.0167 -0.0424728 0)
(20.0091 -0.0366753 0)
(20.0034 -0.0259971 0)
(20.0002 -0.0100538 0)
(22.1086 -0.323051 0)
(21.806 -0.477137 0)
(20.9663 -0.675075 0)
(19.4734 -0.938014 0)
(17.405 -1.28529 0)
(15.2127 -1.6399 0)
(13.1362 -1.96287 0)
(11.0471 -2.26253 0)
(-0.315903 1.28793 0)
(-0.293468 0.929084 0)
(0.254303 0.214465 0)
(0.953779 -0.399307 0)
(2.71584 -1.08109 0)
(5.22083 -1.68026 0)
(7.5715 -2.06877 0)
(9.68906 -2.33993 0)
(22.0943 -0.217337 0)
(21.9485 -0.147439 0)
(21.7726 -0.0975664 0)
(21.6062 -0.0611619 0)
(21.4581 -0.0330978 0)
(21.3276 -0.0110789 0)
(21.2116 0.0066095 0)
(21.1076 0.020948 0)
(21.0136 0.0326508 0)
(20.9279 0.0421832 0)
(20.8492 0.049873 0)
(20.7764 0.0559388 0)
(20.7087 0.060522 0)
(20.6455 0.0637021 0)
(20.5861 0.0655171 0)
(20.5301 0.0659647 0)
(20.4773 0.0650202 0)
(20.4272 0.062636 0)
(20.3799 0.0587649 0)
(20.3352 0.0533774 0)
(20.2932 0.0464685 0)
(20.2539 0.0380864 0)
(20.2175 0.0283425 0)
(20.1843 0.0174435 0)
(20.1541 0.00569523 0)
(20.1273 -0.00651739 0)
(20.1038 -0.0187135 0)
(20.0834 -0.0303663 0)
(20.0661 -0.0404339 0)
(20.0514 -0.0479231 0)
(20.0386 -0.0523523 0)
(20.0275 -0.0532962 0)
(20.0179 -0.0502411 0)
(20.0097 -0.0426061 0)
(20.0036 -0.029838 0)
(20.0002 -0.0114399 0)
(22.1377 -0.332672 0)
(22.1193 -0.472254 0)
(21.758 -0.654114 0)
(20.8582 -0.897388 0)
(19.308 -1.22868 0)
(17.2549 -1.61027 0)
(15.1588 -1.94186 0)
(13.0004 -2.25848 0)
(11.235 -2.43385 0)
(-0.47035 1.07413 0)
(-0.867951 0.786155 0)
(-0.699312 0.0478957 0)
(-0.466415 -0.488964 0)
(0.938093 -0.941227 0)
(3.64181 -1.45982 0)
(6.13493 -1.8786 0)
(8.29183 -2.19193 0)
(10.2254 -2.42931 0)
(22.0018 -0.234809 0)
(21.8257 -0.166345 0)
(21.6554 -0.116264 0)
(21.5028 -0.078742 0)
(21.3681 -0.0496499 0)
(21.2487 -0.0266961 0)
(21.1417 -0.00826654 0)
(21.0453 0.00665466 0)
(20.9576 0.0187875 0)
(20.8773 0.0286151 0)
(20.8033 0.0364792 0)
(20.7346 0.0426068 0)
(20.6705 0.047147 0)
(20.6105 0.0501907 0)
(20.5541 0.0517814 0)
(20.5008 0.0519287 0)
(20.4505 0.0506176 0)
(20.4029 0.0478189 0)
(20.3581 0.0435093 0)
(20.3158 0.0376815 0)
(20.2762 0.0303705 0)
(20.2394 0.0216507 0)
(20.2055 0.0116739 0)
(20.1746 0.000678925 0)
(20.1468 -0.0110238 0)
(20.1223 -0.0230316 0)
(20.1009 -0.0348987 0)
(20.0825 -0.0456278 0)
(20.0666 -0.054238 0)
(20.0527 -0.0602677 0)
(20.0404 -0.0633041 0)
(20.0293 -0.0628326 0)
(20.0193 -0.0582286 0)
(20.0107 -0.0488261 0)
(20.004 -0.0339275 0)
(20.0002 -0.012935 0)
(22.0466 -0.344849 0)
(22.1609 -0.473011 0)
(22.0957 -0.639047 0)
(21.6677 -0.858305 0)
(20.6798 -1.15784 0)
(19.0358 -1.52839 0)
(17.0178 -1.88521 0)
(14.9216 -2.20059 0)
(12.88 -2.46024 0)
(11.5271 -2.52837 0)
(-0.567307 0.789734 0)
(-1.30473 0.56681 0)
(-1.56564 -0.170554 0)
(-1.69875 -0.631353 0)
(-0.5897 -0.792373 0)
(2.15563 -1.14787 0)
(4.88503 -1.61504 0)
(7.08558 -1.99117 0)
(9.05356 -2.27801 0)
(10.7718 -2.49316 0)
(21.8756 -0.251936 0)
(21.7038 -0.18431 0)
(21.5478 -0.133899 0)
(21.4094 -0.0955202 0)
(21.2864 -0.0655982 0)
(21.1766 -0.0418897 0)
(21.0776 -0.0228456 0)
(20.9878 -0.00744134 0)
(20.9057 0.0050424 0)
(20.8303 0.015102 0)
(20.7604 0.023084 0)
(20.6955 0.0292279 0)
(20.6347 0.0336877 0)
(20.5778 0.0365617 0)
(20.5241 0.0379022 0)
(20.4734 0.0377299 0)
(20.4256 0.0360409 0)
(20.3805 0.0328267 0)
(20.338 0.0280832 0)
(20.2981 0.0218374 0)
(20.261 0.0141426 0)
(20.2267 0.00511119 0)
(20.1952 -0.00507559 0)
(20.1668 -0.0161704 0)
(20.1414 -0.0278443 0)
(20.119 -0.039723 0)
(20.0997 -0.0508638 0)
(20.083 -0.0603106 0)
(20.0682 -0.0676379 0)
(20.0549 -0.0724677 0)
(20.0428 -0.074321 0)
(20.0315 -0.072589 0)
(20.0211 -0.0665643 0)
(20.0119 -0.0554231 0)
(20.0045 -0.0383283 0)
(20.0003 -0.0145632 0)
(21.9168 -0.357224 0)
(22.0737 -0.476965 0)
(22.1545 -0.630055 0)
(22.0331 -0.826844 0)
(21.5155 -1.09066 0)
(20.3958 -1.42569 0)
(18.6666 -1.78599 0)
(16.6827 -2.10812 0)
(14.5692 -2.41162 0)
(12.8921 -2.57038 0)
(11.826 -2.58701 0)
(-0.608141 0.465094 0)
(-1.5335 0.321529 0)
(-2.10605 -0.367399 0)
(-2.36105 -0.698428 0)
(-1.43329 -0.595548 0)
(0.823182 -0.734158 0)
(3.77448 -1.25218 0)
(6.13838 -1.72374 0)
(8.068 -2.07297 0)
(9.83876 -2.34546 0)
(11.2791 -2.52965 0)
(21.7484 -0.267755 0)
(21.5913 -0.200945 0)
(21.4502 -0.150389 0)
(21.3243 -0.11145 0)
(21.2116 -0.0809086 0)
(21.1102 -0.0566198 0)
(21.0183 -0.0370902 0)
(20.9344 -0.0213064 0)
(20.8574 -0.00855295 0)
(20.7863 0.00167069 0)
(20.7204 0.00971684 0)
(20.6588 0.0158272 0)
(20.6012 0.0201657 0)
(20.547 0.0228368 0)
(20.496 0.023902 0)
(20.4479 0.0233898 0)
(20.4026 0.0213143 0)
(20.3599 0.0176805 0)
(20.3198 0.0125135 0)
(20.2823 0.00585705 0)
(20.2476 -0.00220397 0)
(20.2157 -0.0115319 0)
(20.1866 -0.0219343 0)
(20.1606 -0.0331452 0)
(20.1376 -0.044857 0)
(20.1175 -0.0561816 0)
(20.1001 -0.0661974 0)
(20.0848 -0.0745203 0)
(20.0709 -0.0808173 0)
(20.0581 -0.0846672 0)
(20.046 -0.0855212 0)
(20.0344 -0.0827026 0)
(20.0234 -0.0753535 0)
(20.0133 -0.0624915 0)
(20.0052 -0.0431091 0)
(20.0003 -0.0163522 0)
(21.784 -0.368481 0)
(21.9419 -0.481702 0)
(22.0747 -0.624709 0)
(22.1135 -0.803486 0)
(21.9175 -1.03486 0)
(21.2734 -1.32711 0)
(20.0024 -1.66019 0)
(18.2306 -1.98687 0)
(16.2119 -2.29954 0)
(14.287 -2.54609 0)
(12.9489 -2.62486 0)
(12.088 -2.60354 0)
(-0.600293 0.129366 0)
(-1.5722 0.0874332 0)
(-2.28945 -0.503552 0)
(-2.4304 -0.628763 0)
(-1.47517 -0.334033 0)
(-0.0551791 -0.26688 0)
(2.72688 -0.773571 0)
(5.40102 -1.37952 0)
(7.31488 -1.81496 0)
(9.03466 -2.14857 0)
(10.5624 -2.41229 0)
(11.6175 -2.50709 0)
(21.6301 -0.281928 0)
(21.4888 -0.216147 0)
(21.3611 -0.165715 0)
(21.2463 -0.126495 0)
(21.1426 -0.0955502 0)
(21.0486 -0.0708501 0)
(20.963 -0.0509653 0)
(20.8845 -0.0349067 0)
(20.8121 -0.0219671 0)
(20.7452 -0.0116488 0)
(20.6827 -0.00359932 0)
(20.6244 0.00242983 0)
(20.5697 0.00660698 0)
(20.5183 0.00904092 0)
(20.4699 0.00980272 0)
(20.4243 0.00893358 0)
(20.3813 0.00645816 0)
(20.341 0.00240503 0)
(20.3033 -0.00318563 0)
(20.2682 -0.0102443 0)
(20.2359 -0.0186647 0)
(20.2065 -0.0282978 0)
(20.18 -0.0389325 0)
(20.1564 -0.050319 0)
(20.1359 -0.0616233 0)
(20.1179 -0.0719615 0)
(20.1021 -0.080991 0)
(20.0878 -0.08843 0)
(20.0747 -0.0939156 0)
(20.0622 -0.0969837 0)
(20.05 -0.0970405 0)
(20.038 -0.0932846 0)
(20.026 -0.0847083 0)
(20.015 -0.0701323 0)
(20.0059 -0.0483465 0)
(20.0003 -0.0183332 0)
(21.66 -0.378116 0)
(21.8046 -0.485752 0)
(21.9436 -0.620459 0)
(22.0449 -0.785545 0)
(22.0281 -0.991028 0)
(21.7294 -1.24398 0)
(20.9315 -1.53458 0)
(19.5278 -1.84339 0)
(17.7057 -2.1489 0)
(15.6946 -2.44942 0)
(14.0974 -2.60684 0)
(12.9799 -2.62897 0)
(12.2565 -2.5457 0)
(-0.545305 -0.18844 0)
(-1.46806 -0.125009 0)
(-2.19543 -0.575361 0)
(-2.1495 -0.444143 0)
(-1.16335 -0.0178957 0)
(-0.326679 0.15299 0)
(1.80452 -0.220911 0)
(4.67127 -0.954747 0)
(6.74779 -1.5207 0)
(8.36034 -1.91364 0)
(9.90898 -2.25548 0)
(11.0572 -2.44084 0)
(11.7515 -2.37728 0)
(21.5223 -0.294416 0)
(21.3953 -0.229917 0)
(21.2794 -0.179884 0)
(21.1742 -0.140639 0)
(21.0786 -0.109493 0)
(20.9914 -0.084544 0)
(20.9114 -0.0644361 0)
(20.8378 -0.0482068 0)
(20.7696 -0.0351691 0)
(20.7063 -0.0248282 0)
(20.6472 -0.0168344 0)
(20.592 -0.0109369 0)
(20.5402 -0.00696484 0)
(20.4913 -0.00480208 0)
(20.4455 -0.00437068 0)
(20.4023 -0.00561783 0)
(20.3618 -0.00850251 0)
(20.3238 -0.0129831 0)
(20.2886 -0.0189983 0)
(20.2561 -0.02646 0)
(20.2262 -0.0352519 0)
(20.1993 -0.045208 0)
(20.1753 -0.0561291 0)
(20.1543 -0.0672311 0)
(20.136 -0.0776689 0)
(20.12 -0.0871391 0)
(20.1055 -0.0954075 0)
(20.0922 -0.102171 0)
(20.0796 -0.107045 0)
(20.0674 -0.109545 0)
(20.0549 -0.108986 0)
(20.0421 -0.104451 0)
(20.0293 -0.0947447 0)
(20.0171 -0.0784569 0)
(20.0068 -0.0541278 0)