/*--------------------------------*- C++ -*----------------------------------*\
| =========                 |                                                 |
| \\      /  F ield         | OpenFOAM: The Open Source CFD Toolbox           |
|  \\    /   O peration     | Version:  5.x                                   |
|   \\  /    A nd           | Web:      www.OpenFOAM.org                      |
|    \\/     M anipulation  |                                                 |
\*---------------------------------------------------------------------------*/
FoamFile
{
    version     2.0;
    format      ascii;
    class       volVectorField;
    location    "0.1";
    object      Urom;
}
// * * * * * * * * * * * * * * * * * * * * * * * * * * * * * * * * * * * * * //

dimensions      [0 1 -1 0 0 0 0];

internalField   nonuniform List<vector> 
17530
(
(0.165813 0.00230729 0)
(0.103596 0.00298117 0)
(0.458398 0.0271647 0)
(0.0339204 0.00354353 0)
(0.316187 0.0304034 0)
(0.863521 0.0683187 0)
(-0.0383135 0.00360855 0)
(0.164756 0.032694 0)
(0.673681 0.0741403 0)
(1.34563 0.12016 0)
(-0.108777 0.00330882 0)
(0.012544 0.0325925 0)
(0.477671 0.0773962 0)
(1.13168 0.127473 0)
(1.81164 0.178397 0)
(-0.178742 0.00320314 0)
(-0.136324 0.0318338 0)
(0.282666 0.0765686 0)
(0.912518 0.131495 0)
(1.5921 0.186756 0)
(2.21031 0.239135 0)
(-0.252023 0.00349186 0)
(-0.286225 0.0324108 0)
(0.0917857 0.0751595 0)
(0.690942 0.130155 0)
(1.36018 0.193041 0)
(1.99699 0.249805 0)
(2.53802 0.299313 0)
(-0.327882 0.00376259 0)
(-0.442458 0.0339429 0)
(-0.0976639 0.0764959 0)
(0.474993 0.127089 0)
(1.11874 0.191367 0)
(1.75865 0.260888 0)
(2.33505 0.314383 0)
(2.80917 0.357354 0)
(-0.399685 0.0035438 0)
(-0.601125 0.0337523 0)
(-0.29086 0.0793677 0)
(0.267924 0.127688 0)
(0.888097 0.184703 0)
(1.50452 0.258796 0)
(2.09735 0.332951 0)
(2.61546 0.379153 0)
(3.04017 0.413683 0)
(-0.461438 0.00299667 0)
(-0.749204 0.0302946 0)
(-0.48595 0.0781635 0)
(0.062094 0.131364 0)
(0.676469 0.182828 0)
(1.26799 0.246222 0)
(1.84121 0.330529 0)
(2.38413 0.406566 0)
(2.85111 0.443947 0)
(3.24781 0.471129 0)
(-0.512623 0.00268695 0)
(-0.875757 0.025259 0)
(-0.668993 0.0700518 0)
(-0.146985 0.12936 0)
(0.469381 0.187355 0)
(1.05961 0.240002 0)
(1.60707 0.309913 0)
(2.13804 0.40352 0)
(2.62967 0.479223 0)
(3.05579 0.50924 0)
(3.45017 0.533893 0)
(-0.555083 0.00263164 0)
(-0.978679 0.0208919 0)
(-0.823935 0.0580868 0)
(-0.344159 0.115562 0)
(0.256293 0.184984 0)
(0.858756 0.245062 0)
(1.40681 0.297117 0)
(1.91632 0.373379 0)
(2.4033 0.47391 0)
(2.84623 0.548946 0)
(3.24715 0.576184 0)
(3.66319 0.605492 0)
(-0.588576 0.00239114 0)
(-1.0588 0.01674 0)
(-0.944986 0.0461889 0)
(-0.505079 0.0937923 0)
(0.0570366 0.163518 0)
(0.653976 0.241809 0)
(1.22046 0.301239 0)
(1.73108 0.352096 0)
(2.20515 0.433324 0)
(2.64627 0.538409 0)
(3.04997 0.614268 0)
(3.44645 0.646158 0)
(3.8935 0.686497 0)
(-0.611386 0.00196198 0)
(-1.11386 0.0120764 0)
(-1.0344 0.0345884 0)
(-0.622418 0.0722264 0)
(-0.100238 0.129369 0)
(0.46518 0.212234 0)
(1.03675 0.296297 0)
(1.56719 0.353177 0)
(2.04514 0.402438 0)
(2.4804 0.486141 0)
(2.8805 0.59454 0)
(3.26129 0.674402 0)
(3.66999 0.719177 0)
(4.13617 0.773075 0)
(-0.623 0.0016854 0)
(-1.14056 0.00680566 0)
(-1.09204 0.0219062 0)
(-0.706172 0.052905 0)
(-0.211897 0.0973121 0)
(0.312777 0.166158 0)
(0.864667 0.260321 0)
(1.40765 0.347024 0)
(1.90768 0.399976 0)
(2.3532 0.44563 0)
(2.75061 0.529443 0)
(3.12259 0.641037 0)
(3.4979 0.729406 0)
(3.92063 0.792443 0)
(4.37898 0.858805 0)
(-0.624517 0.00140234 0)
(-1.13805 0.00195258 0)
(-1.1126 0.00752179 0)
(-0.761446 0.0315139 0)
(-0.291831 0.0705525 0)
(0.196804 0.124139 0)
(0.714514 0.205463 0)
(1.24772 0.307839 0)
(1.76526 0.395293 0)
(2.23979 0.442599 0)
(2.6547 0.48138 0)
(3.0267 0.56346 0)
(3.38657 0.678319 0)
(3.76592 0.779331 0)
(4.18766 0.861219 0)
(4.60852 0.93662 0)
(-0.616329 0.00109928 0)
(-1.10822 -0.00248718 0)
(-1.08912 -0.00663662 0)
(-0.778371 0.00556443 0)
(-0.34488 0.0406505 0)
(0.108768 0.0892352 0)
(0.587819 0.15538 0)
(1.09445 0.24793 0)
(1.60705 0.357008 0)
(2.10463 0.444026 0)
(2.55598 0.482885 0)
(2.95044 0.512527 0)
(3.31655 0.591108 0)
(3.67757 0.708667 0)
(4.05787 0.822952 0)
(4.45478 0.920426 0)
(4.81307 0.999491 0)
(-0.59726 0.000661429 0)
(-1.05268 -0.00729878 0)
(-1.02006 -0.0197064 0)
(-0.74107 -0.0224229 0)
(-0.355369 0.0016682 0)
(0.0545527 0.048524 0)
(0.4875 0.11097 0)
(0.958714 0.190581 0)
(1.44661 0.29355 0)
(1.94201 0.409683 0)
(2.42173 0.494707 0)
(2.85215 0.52331 0)
(3.2431 0.544209 0)
(3.62151 0.617263 0)
(3.98992 0.734709 0)
(4.35766 0.858189 0)
(4.70723 0.965119 0)
(4.98383 1.04135 0)
(-0.566224 6.09217e-07 0)
(-0.972564 -0.0127241 0)
(-0.912126 -0.0319913 0)
(-0.64596 -0.0484674 0)
(-0.305922 -0.0422693 0)
(0.0549498 -0.00573538 0)
(0.43165 0.0557386 0)
(0.85545 0.134836 0)
(1.30826 0.227223 0)
(1.77725 0.341616 0)
(2.2593 0.46477 0)
(2.71797 0.546139 0)
(3.13215 0.566446 0)
(3.53599 0.581763 0)
(3.9365 0.646607 0)
(4.30935 0.757879 0)
(4.64802 0.88308 0)
(4.93121 0.991127 0)
(5.11778 1.0595 0)
(-0.522979 -0.000641626 0)
(-0.870177 -0.0183169 0)
(-0.778308 -0.0432811 0)
(-0.509432 -0.06916 0)
(-0.204446 -0.0807994 0)
(0.113352 -0.0637488 0)
(0.437893 -0.0151786 0)
(0.804873 0.0634702 0)
(1.21586 0.157554 0)
(1.6453 0.262673 0)
(2.10126 0.389956 0)
(2.56792 0.518337 0)
(3.00034 0.595468 0)
(3.40737 0.613656 0)
(3.83232 0.627775 0)
(4.25119 0.681235 0)
(4.61772 0.779057 0)
(4.91212 0.896384 0)
(5.11405 0.996331 0)
(5.21975 1.05742 0)
(-0.467691 -0.00124444 0)
(-0.746554 -0.0235734 0)
(-0.627786 -0.0536122 0)
(-0.351566 -0.084679 0)
(-0.0750929 -0.108597 0)
(0.202613 -0.110241 0)
(0.487543 -0.083429 0)
(0.803854 -0.0211872 0)
(1.17586 0.072288 0)
(1.5711 0.176847 0)
(1.98606 0.294796 0)
(2.432 0.43446 0)
(2.87412 0.565372 0)
(3.28109 0.640531 0)
(3.69235 0.664365 0)
(4.13305 0.680346 0)
(4.55244 0.720545 0)
(4.89717 0.798788 0)
(5.13311 0.897565 0)
(5.24978 0.982785 0)
(5.30113 1.04367 0)
(-0.399869 -0.00183536 0)
(-0.600485 -0.0289126 0)
(-0.45863 -0.0642898 0)
(-0.178736 -0.098746 0)
(0.0733083 -0.129668 0)
(0.303894 -0.143315 0)
(0.54935 -0.133678 0)
(0.820941 -0.0955774 0)
(1.15639 -0.0187188 0)
(1.53613 0.0832923 0)
(1.92651 0.194057 0)
(2.34088 0.322744 0)
(2.77293 0.470925 0)
(3.1844 0.602227 0)
(3.57638 0.680458 0)
(3.99623 0.71555 0)
(4.43299 0.733952 0)
(4.82873 0.76136 0)
(5.1328 0.816013 0)
(5.29839 0.886528 0)
(5.34496 0.956778 0)
(5.37403 1.02652 0)
(-0.318784 -0.00245064 0)
(-0.429023 -0.0346371 0)
(-0.264023 -0.076398 0)
(0.0160971 -0.115307 0)
(0.25188 -0.150958 0)
(0.429961 -0.173459 0)
(0.622019 -0.172398 0)
(0.843576 -0.149575 0)
(1.12898 -0.0949588 0)
(1.49273 -0.00573718 0)
(1.88328 0.098866 0)
(2.28498 0.213037 0)
(2.70443 0.347969 0)
(3.12018 0.498137 0)
(3.50924 0.628121 0)
(3.8989 0.713935 0)
(4.31633 0.761336 0)
(4.72211 0.781808 0)
(5.07273 0.798885 0)
(5.31535 0.826568 0)
(5.40846 0.864541 0)
(5.41594 0.926787 0)
(5.44444 1.01046 0)
(-0.224168 -0.00327262 0)
(-0.230573 -0.0407171 0)
(-0.0404815 -0.0897468 0)
(0.238706 -0.134659 0)
(0.471221 -0.175324 0)
(0.607254 -0.208109 0)
(0.734689 -0.215786 0)
(0.895797 -0.198606 0)
(1.112 -0.156924 0)
(1.42858 -0.0816301 0)
(1.81525 0.0164105 0)
(2.22144 0.121651 0)
(2.64025 0.237563 0)
(3.06404 0.373305 0)
(3.47261 0.518876 0)
(3.85809 0.645192 0)
(4.24884 0.738662 0)
(4.63875 0.795034 0)
(4.9911 0.818346 0)
(5.27898 0.826899 0)
(5.44462 0.824958 0)
(5.47948 0.835249 0)
(5.47817 0.899433 0)
(5.51039 0.996977 0)
(-0.117263 -0.0040806 0)
(-0.00668264 -0.0463289 0)
(0.207903 -0.102656 0)
(0.480892 -0.153563 0)
(0.719508 -0.199345 0)
(0.842596 -0.243683 0)
(0.912584 -0.267823 0)
(1.00941 -0.259328 0)
(1.14981 -0.223865 0)
(1.38673 -0.156644 0)
(1.73478 -0.0610447 0)
(2.1344 0.04423 0)
(2.5533 0.152199 0)
(2.98338 0.269424 0)
(3.41574 0.401925 0)
(3.83388 0.537615 0)
(4.23005 0.657111 0)
(4.6103 0.752183 0)
(4.94712 0.811914 0)
(5.23203 0.840164 0)
(5.44306 0.83857 0)
(5.53137 0.808456 0)
(5.53358 0.803223 0)
(5.53775 0.876125 0)
(5.56913 0.986297 0)
(-0.000242692 -0.00465004 0)
(0.238159 -0.0509788 0)
(0.476351 -0.114016 0)
(0.728533 -0.169813 0)
(0.965446 -0.217972 0)
(1.10281 -0.269494 0)
(1.14499 -0.314957 0)
(1.19052 -0.328035 0)
(1.2673 -0.305658 0)
(1.41495 -0.24757 0)
(1.69021 -0.152655 0)
(2.05714 -0.0400596 0)
(2.45934 0.0736784 0)
(2.88122 0.187742 0)
(3.31847 0.307528 0)
(3.76768 0.435502 0)
(4.20396 0.558209 0)
(4.60904 0.666735 0)
(4.95837 0.75332 0)
(5.22818 0.811059 0)
(5.4383 0.843969 0)
(5.56631 0.829687 0)
(5.59431 0.778757 0)
(5.58695 0.771138 0)
(5.59539 0.853767 0)
(5.62832 0.978333 0)
(0.123781 -0.00518454 0)
(0.4999 -0.0542312 0)
(0.76631 -0.124066 0)
(0.982836 -0.185652 0)
(1.19598 -0.233631 0)
(1.34654 -0.283154 0)
(1.38905 -0.341332 0)
(1.40298 -0.38241 0)
(1.44447 -0.387084 0)
(1.52555 -0.351892 0)
(1.71569 -0.268368 0)
(2.0269 -0.14988 0)
(2.39634 -0.0234919 0)
(2.79426 0.101087 0)
(3.21603 0.223396 0)
(3.66369 0.348065 0)
(4.12813 0.472384 0)
(4.57371 0.582702 0)
(4.97036 0.675287 0)
(5.27012 0.742988 0)
(5.47305 0.794519 0)
(5.60821 0.826427 0)
(5.66036 0.798979 0)
(5.6536 0.738952 0)
(5.64815 0.736674 0)
(5.65812 0.82734 0)
(5.71012 0.970967 0)
(0.251058 -0.00540799 0)
(0.773521 -0.0562453 0)
(1.08171 -0.131821 0)
(1.25688 -0.202849 0)
(1.42702 -0.25266 0)
(1.5704 -0.295909 0)
(1.62047 -0.350749 0)
(1.61081 -0.408694 0)
(1.62968 -0.44264 0)
(1.68083 -0.442314 0)
(1.80532 -0.391793 0)
(2.05555 -0.285551 0)
(2.38581 -0.151316 0)
(2.74916 -0.0127305 0)
(3.14601 0.123442 0)
(3.57458 0.254702 0)
(4.03243 0.385935 0)
(4.4948 0.508768 0)
(4.92931 0.609919 0)
(5.29195 0.681356 0)
(5.53367 0.723646 0)
(5.68018 0.764239 0)
(5.74844 0.785438 0)
(5.74447 0.74734 0)
(5.72599 0.689622 0)
(5.72464 0.693326 0)
(5.74655 0.792779 0)
(5.83887 0.959023 0)
(0.378635 -0.00547987 0)
(1.05219 -0.0568065 0)
(1.41965 -0.136537 0)
(1.56257 -0.218948 0)
(1.67929 -0.276844 0)
(1.79927 -0.31834 0)
(1.85176 -0.362944 0)
(1.82037 -0.419749 0)
(1.80242 -0.468768 0)
(1.8355 -0.496381 0)
(1.91992 -0.488944 0)
(2.11702 -0.420389 0)
(2.41699 -0.29906 0)
(2.75359 -0.156335 0)
(3.11932 -0.00712306 0)
(3.52527 0.139138 0)
(3.9637 0.279206 0)
(4.41821 0.417083 0)
(4.85816 0.54094 0)
(5.25862 0.63497 0)
(5.56388 0.681122 0)
(5.75236 0.697545 0)
(5.85535 0.719794 0)
(5.87057 0.721288 0)
(5.83694 0.678043 0)
(5.82121 0.628524 0)
(5.8279 0.636445 0)
(5.88549 0.749885 0)
(6.0234 0.935522 0)
(0.504035 -0.00545722 0)
(1.32965 -0.0561334 0)
(1.76882 -0.137678 0)
(1.90035 -0.229929 0)
(1.96021 -0.301378 0)
(2.05101 -0.348927 0)
(2.10258 -0.38984 0)
(2.0602 -0.438636 0)
(1.99299 -0.488288 0)
(1.98982 -0.524785 0)
(2.04088 -0.545524 0)
(2.18299 -0.522842 0)
(2.45045 -0.436403 0)
(2.77947 -0.308499 0)
(3.12909 -0.161665 0)
(3.51545 -0.00511737 0)
(3.93419 0.148007 0)
(4.37008 0.296369 0)
(4.80308 0.440246 0)
(5.20828 0.566201 0)
(5.55429 0.649933 0)
(5.79237 0.670431 0)
(5.93931 0.664247 0)
(6.00468 0.660021 0)
(5.98445 0.639062 0)
(5.94757 0.597011 0)
(5.94116 0.554823 0)
(5.97273 0.569382 0)
(6.08561 0.701173 0)
(6.25319 0.89366 0)
(0.624792 -0.0052831 0)
(1.60069 -0.0543699 0)
(2.11763 -0.135635 0)
(2.25833 -0.233111 0)
(2.26326 -0.319466 0)
(2.32013 -0.378134 0)
(2.37358 -0.424911 0)
(2.33915 -0.472392 0)
(2.23418 -0.521291 0)
(2.17612 -0.556776 0)
(2.19108 -0.582429 0)
(2.27137 -0.590351 0)
(2.4764 -0.544001 0)
(2.78872 -0.442345 0)
(3.13894 -0.312282 0)
(3.52106 -0.163264 0)
(3.93637 -0.00452489 0)
(4.35662 0.151542 0)
(4.77275 0.307023 0)
(5.17387 0.45619 0)
(5.53699 0.58097 0)
(5.81596 0.647247 0)
(5.99364 0.646593 0)
(6.10277 0.620763 0)
(6.12896 0.587222 0)
(6.09583 0.550256 0)
(6.07553 0.51164 0)
(6.08757 0.473421 0)
(6.17005 0.502579 0)
(6.33493 0.64589 0)
(6.52108 0.831977 0)
(0.738724 -0.00501552 0)
(1.86082 -0.0516072 0)
(2.45949 -0.131296 0)
(2.62356 -0.230178 0)
(2.58273 -0.327855 0)
(2.58942 -0.398866 0)
(2.64397 -0.453859 0)
(2.63506 -0.508524 0)
(2.52653 -0.565168 0)
(2.41484 -0.606767 0)
(2.3866 -0.62822 0)
(2.41817 -0.644164 0)
(2.54101 -0.630005 0)
(2.79531 -0.556975 0)
(3.12985 -0.442967 0)
(3.50749 -0.308955 0)
(3.9308 -0.15815 0)
(4.36246 -0.00272105 0)
(4.76915 0.152675 0)
(5.15935 0.313126 0)
(5.52621 0.464691 0)
(5.83929 0.58008 0)
(6.05111 0.623717 0)
(6.17757 0.607881 0)
(6.23759 0.564465 0)
(6.22803 0.509449 0)
(6.20789 0.467677 0)
(6.21588 0.428857 0)
(6.26955 0.396184 0)
(6.41812 0.44303 0)
(6.61675 0.580006 0)
(6.84144 0.760125 0)
(0.843695 -0.00469099 0)
(2.10617 -0.0478435 0)
(2.79095 -0.125099 0)
(2.98872 -0.223998 0)
(2.92202 -0.328156 0)
(2.85834 -0.412047 0)
(2.89642 -0.471629 0)
(2.91376 -0.53244 0)
(2.83488 -0.600617 0)
(2.69925 -0.661997 0)
(2.62498 -0.692258 0)
(2.62239 -0.704894 0)
(2.67611 -0.707169 0)
(2.84958 -0.664509 0)
(3.13855 -0.568417 0)
(3.48826 -0.442942 0)
(3.89501 -0.298979 0)
(4.34258 -0.145745 0)
(4.76799 0.00241547 0)
(5.1584 0.155204 0)
(5.52767 0.316186 0)
(5.8605 0.462735 0)
(6.11608 0.558572 0)
(6.26535 0.579997 0)
(6.33568 0.552915 0)
(6.33594 0.496951 0)
(6.30967 0.438309 0)
(6.32077 0.400043 0)
(6.37153 0.358377 0)
(6.49803 0.336332 0)
(6.70498 0.386949 0)
(6.93538 0.506164 0)
(7.22975 0.690734 0)
(0.93728 -0.0042671 0)
(2.33226 -0.0431333 0)
(3.10906 -0.116821 0)
(3.35019 -0.215614 0)
(3.28174 -0.323224 0)
(3.14767 -0.420684 0)
(3.13582 -0.485571 0)
(3.16532 -0.544266 0)
(3.12397 -0.616785 0)
(2.99812 -0.698243 0)
(2.88861 -0.756233 0)
(2.86012 -0.777417 0)
(2.87372 -0.784482 0)
(2.96653 -0.766106 0)
(3.19423 -0.695771 0)
(3.51085 -0.583643 0)
(3.8753 -0.445039 0)
(4.29619 -0.285356 0)
(4.73496 -0.128933 0)
(5.14062 0.0129187 0)
(5.52398 0.162445 0)
(5.87936 0.316386 0)
(6.17723 0.446113 0)
(6.36844 0.513753 0)
(6.45023 0.516736 0)
(6.45179 0.481666 0)
(6.40438 0.42512 0)
(6.38671 0.381764 0)
(6.43633 0.352198 0)
(6.55839 0.313923 0)
(6.77372 0.297191 0)
(7.02515 0.327648 0)
(7.31054 0.436156 0)
(7.67154 0.623476 0)
(1.01725 -0.00372209 0)
(2.53323 -0.0374322 0)
(3.40836 -0.105944 0)
(3.70486 -0.204096 0)
(3.65294 -0.314426 0)
(3.47633 -0.42381 0)
(3.38468 -0.502673 0)
(3.40286 -0.556213 0)
(3.38873 -0.622225 0)
(3.29203 -0.709225 0)
(3.16219 -0.796111 0)
(3.10244 -0.845068 0)
(3.10057 -0.862067 0)
(3.13814 -0.860319 0)
(3.29353 -0.816916 0)
(3.57363 -0.726443 0)
(3.91053 -0.604285 0)
(4.28403 -0.449909 0)
(4.69476 -0.273108 0)
(5.09768 -0.112294 0)
(5.4861 0.0305007 0)
(5.87069 0.175553 0)
(6.21573 0.312728 0)
(6.47093 0.411599 0)
(6.58674 0.445497 0)
(6.58856 0.434498 0)
(6.52593 0.39765 0)
(6.46309 0.356736 0)
(6.47001 0.340464 0)
(6.57234 0.329096 0)
(6.79464 0.303601 0)
(7.08971 0.270006 0)
(7.3894 0.268445 0)
(7.74624 0.378451 0)
(8.12764 0.54229 0)
(1.08126 -0.00307355 0)
(2.70327 -0.0306595 0)
(3.68012 -0.0921167 0)
(4.04646 -0.18779 0)
(4.02412 -0.300908 0)
(3.84011 -0.418596 0)
(3.66997 -0.518888 0)
(3.64197 -0.577583 0)
(3.64239 -0.632154 0)
(3.57877 -0.710018 0)
(3.45061 -0.8091 0)
(3.35027 -0.890709 0)
(3.32629 -0.930183 0)
(3.33687 -0.943802 0)
(3.42743 -0.925255 0)
(3.65982 -0.858491 0)
(3.97902 -0.757887 0)
(4.32286 -0.628275 0)
(4.6943 -0.45683 0)
(5.07437 -0.266876 0)
(5.43657 -0.0979293 0)
(5.81754 0.0548756 0)
(6.2033 0.193121 0)
(6.53164 0.303075 0)
(6.72426 0.357643 0)
(6.75208 0.356678 0)
(6.67772 0.335797 0)
(6.57913 0.307529 0)
(6.52987 0.295188 0)
(6.57788 0.312788 0)
(6.76418 0.334429 0)
(7.08974 0.318519 0)
(7.446 0.245651 0)
(7.8089 0.219776 0)
(8.21648 0.324435 0)
(8.56221 0.429398 0)
(1.12727 -0.00226457 0)
(2.8369 -0.0229629 0)
(3.9152 -0.0753907 0)
(4.36497 -0.165944 0)
(4.38555 -0.280478 0)
(4.21684 -0.403999 0)
(4.00275 -0.523875 0)
(3.89829 -0.604752 0)
(3.89633 -0.654308 0)
(3.85886 -0.718174 0)
(3.75507 -0.810059 0)
(3.62598 -0.912838 0)
(3.56014 -0.982591 0)
(3.54749 -1.01492 0)
(3.58471 -1.01842 0)
(3.75652 -0.975557 0)
(4.05533 -0.892463 0)
(4.3891 -0.789057 0)
(4.72817 -0.651107 0)
(5.08527 -0.465027 0)
(5.42619 -0.267412 0)
(5.7652 -0.0836239 0)
(6.14529 0.0831914 0)
(6.5225 0.211549 0)
(6.80858 0.283209 0)
(6.91261 0.284872 0)
(6.8576 0.25236 0)
(6.73712 0.22662 0)
(6.63517 0.216641 0)
(6.62192 0.24068 0)
(6.74635 0.300086 0)
(7.04271 0.361295 0)
(7.44534 0.337103 0)
(7.85141 0.222533 0)
(8.27409 0.181951 0)
(8.68288 0.25405 0)
(8.96073 0.279831 0)
(1.15449 -0.00139091 0)
(2.93019 -0.0146171 0)
(4.10492 -0.0563576 0)
(4.65024 -0.13847 0)
(4.72823 -0.252068 0)
(4.58578 -0.379746 0)
(4.36747 -0.51178 0)
(4.18792 -0.622921 0)
(4.15167 -0.685252 0)
(4.1367 -0.739655 0)
(4.0636 -0.816719 0)
(3.93341 -0.920492 0)
(3.82353 -1.01685 0)
(3.77945 -1.07517 0)
(3.77585 -1.10038 0)
(3.87151 -1.08219 0)
(4.12414 -1.01262 0)
(4.45416 -0.92111 0)
(4.78056 -0.816535 0)
(5.11087 -0.668136 0)
(5.44242 -0.474009 0)
(5.75334 -0.269668 0)
(6.09447 -0.0655941 0)
(6.47268 0.111458 0)
(6.81721 0.223699 0)
(7.01872 0.246998 0)
(7.02647 0.19721 0)
(6.9212 0.139799 0)
(6.79086 0.11306 0)
(6.71493 0.128674 0)
(6.77277 0.194972 0)
(7.01316 0.302592 0)
(7.41335 0.391037 0)
(7.86136 0.342408 0)
(8.308 0.199874 0)
(8.75779 0.140774 0)
(9.11902 0.149404 0)
(9.32616 0.107007 0)
(1.16369 -0.000498858 0)
(2.98266 -0.00635804 0)
(4.24323 -0.0361566 0)
(4.89235 -0.106367 0)
(5.04406 -0.215433 0)
(4.93661 -0.345776 0)
(4.73575 -0.48405 0)
(4.51588 -0.619099 0)
(4.41132 -0.711727 0)
(4.40848 -0.76836 0)
(4.36637 -0.835864 0)
(4.25905 -0.927946 0)
(4.11993 -1.03549 0)
(4.036 -1.12007 0)
(4.00698 -1.17118 0)
(4.03671 -1.18361 0)
(4.20793 -1.13421 0)
(4.50648 -1.04132 0)
(4.82877 -0.945355 0)
(5.14004 -0.83567 0)
(5.45955 -0.677203 0)
(5.76283 -0.481217 0)
(6.06943 -0.265599 0)
(6.42832 -0.0428047 0)
(6.7917 0.134243 0)
(7.06183 0.218179 0)
(7.14813 0.189549 0)
(7.08663 0.10085 0)
(6.96959 0.0247546 0)
(6.86084 9.73784e-05 0)
(6.85227 0.0474437 0)
(7.02467 0.16074 0)
(7.38951 0.312683 0)
(7.85944 0.405629 0)
(8.33305 0.329594 0)
(8.80348 0.169634 0)
(9.23254 0.0726953 0)
(9.51196 0.00635674 0)
(9.69003 -0.0667487 0)
(1.1571 0.000291157 0)
(2.99711 0.00107825 0)
(4.32916 -0.0163218 0)
(5.0826 -0.0717106 0)
(5.32504 -0.171629 0)
(5.26569 -0.301781 0)
(5.08796 -0.444461 0)
(4.86607 -0.591631 0)
(4.6912 -0.718206 0)
(4.66384 -0.794012 0)
(4.65688 -0.859509 0)
(4.58202 -0.943106 0)
(4.44141 -1.0477 0)
(4.31528 -1.14894 0)
(4.26004 -1.22333 0)
(4.25503 -1.26921 0)
(4.34388 -1.25931 0)
(4.57447 -1.17668 0)
(4.87271 -1.06673 0)
(5.1656 -0.964444 0)
(5.46369 -0.8431 0)
(5.76804 -0.678396 0)
(6.05926 -0.48088 0)
(6.39018 -0.249451 0)
(6.76144 -0.0184231 0)
(7.07836 0.142608 0)
(7.23445 0.183359 0)
(7.21704 0.111044 0)
(7.12726 7.11552e-05 0)
(7.02693 -0.090103 0)
(6.98176 -0.106949 0)
(7.09078 -0.0234938 0)
(7.39636 0.136503 0)
(7.855 0.317522 0)
(8.35975 0.398161 0)
(8.84957 0.297776 0)
(9.31563 0.113509 0)
(9.67014 -0.0405452 0)
(9.8848 -0.160566 0)
(10.0994 -0.224663 0)
(1.13743 0.000931484 0)
(2.97885 0.00732068 0)
(4.3661 0.00155635 0)
(5.21612 -0.0376637 0)
(5.5627 -0.12297 0)
(5.5687 -0.24856 0)
(5.42049 -0.394439 0)
(5.21346 -0.547265 0)
(5.0003 -0.696918 0)
(4.9096 -0.80544 0)
(4.9248 -0.877527 0)
(4.88835 -0.960151 0)
(4.76964 -1.05999 0)
(4.61331 -1.16812 0)
(4.52193 -1.25741 0)
(4.49887 -1.32648 0)
(4.53261 -1.36313 0)
(4.68297 -1.32312 0)
(4.9365 -1.21316 0)
(5.20443 -1.0918 0)
(5.46606 -0.976938 0)
(5.75171 -0.839501 0)
(6.04421 -0.671398 0)
(6.35503 -0.466524 0)
(6.72085 -0.222055 0)
(7.07527 8.03399e-05 0)
(7.30465 0.12474 0)
(7.34243 0.114811 0)
(7.26516 0.0158056 0)
(7.17592 -0.1054 0)
(7.12766 -0.201339 0)
(7.20051 -0.202101 0)
(7.45247 -0.0823978 0)
(7.86903 0.115056 0)
(8.38072 0.307531 0)
(8.9022 0.366945 0)
(9.39686 0.23858 0)
(9.80525 0.0130138 0)
(10.0752 -0.192974 0)
(10.2872 -0.330319 0)
(10.5681 -0.361205 0)
(1.10706 0.00149514 0)
(2.93404 0.0123816 0)
(4.35988 0.0166114 0)
(5.29333 -0.00695327 0)
(5.74891 -0.0732933 0)
(5.8387 -0.18835 0)
(5.73441 -0.33408 0)
(5.54604 -0.491948 0)
(5.32675 -0.652326 0)
(5.16882 -0.792652 0)
(5.16318 -0.884725 0)
(5.17249 -0.968332 0)
(5.08674 -1.07017 0)
(4.92443 -1.18176 0)
(4.78756 -1.2816 0)
(4.74234 -1.35994 0)
(4.75167 -1.42616 0)
(4.83067 -1.44476 0)
(5.02281 -1.37358 0)
(5.26827 -1.24647 0)
(5.49923 -1.11672 0)
(5.73788 -0.982802 0)
(6.01218 -0.82846 0)
(6.31265 -0.653561 0)
(6.6668 -0.436012 0)
(7.04677 -0.19143 0)
(7.3431 0.00226395 0)
(7.46316 0.0726378 0)
(7.41869 0.0176514 0)
(7.32305 -0.0936368 0)
(7.26408 -0.215574 0)
(7.31964 -0.302439 0)
(7.5437 -0.280969 0)
(7.92126 -0.132825 0)
(8.41142 0.0877125 0)
(8.95312 0.275407 0)
(9.48368 0.305464 0)
(9.93564 0.13868 0)
(10.2542 -0.131048 0)
(10.489 -0.362536 0)
(10.742 -0.488946 0)
(11.0774 -0.478444 0)
(1.06796 0.00199339 0)
(2.86803 0.0165856 0)
(4.3178 0.0286098 0)
(5.32064 0.0191014 0)
(5.87708 -0.0270954 0)
(6.06711 -0.124409 0)
(6.02474 -0.264407 0)
(5.86478 -0.426382 0)
(5.65327 -0.593581 0)
(5.45446 -0.754251 0)
(5.38747 -0.875974 0)
(5.42397 -0.964523 0)
(5.38513 -1.06917 0)
(5.23994 -1.18829 0)
(5.06385 -1.30061 0)
(4.97579 -1.38447 0)
(4.97023 -1.45597 0)
(5.00649 -1.5154 0)
(5.12718 -1.50768 0)
(5.33856 -1.41158 0)
(5.56054 -1.27789 0)
(5.76278 -1.13944 0)
(5.99154 -0.983554 0)
(6.26663 -0.812469 0)
(6.5989 -0.622702 0)
(6.98751 -0.394378 0)
(7.34022 -0.167109 0)
(7.54913 -0.0213379 0)
(7.5747 -0.0115856 0)
(7.49526 -0.0997712 0)
(7.41722 -0.216083 0)
(7.43623 -0.325101 0)
(7.63427 -0.386439 0)
(7.99772 -0.344503 0)
(8.46803 -0.180691 0)
(9.0103 0.045169 0)
(9.57221 0.211484 0)
(10.0696 0.204787 0)
(10.4316 -0.00467253 0)
(10.6896 -0.300976 0)
(10.9405 -0.529623 0)
(11.2372 -0.632103 0)
(11.6004 -0.580268 0)
(1.02182 0.00241297 0)
(2.78531 0.0199145 0)
(4.24715 0.0380803 0)
(5.30715 0.0404299 0)
(5.94744 0.011999 0)
(6.24369 -0.0617826 0)
(6.28143 -0.18822 0)
(6.16803 -0.349289 0)
(5.97227 -0.52424 0)
(5.75979 -0.69687 0)
(5.62645 -0.846531 0)
(5.64108 -0.95141 0)
(5.65725 -1.05252 0)
(5.54771 -1.1804 0)
(5.3592 -1.31003 0)
(5.2129 -1.40972 0)
(5.17493 -1.47721 0)
(5.18842 -1.5432 0)
(5.2471 -1.58634 0)
(5.40424 -1.54904 0)
(5.61941 -1.43934 0)
(5.81426 -1.3067 0)
(6.00495 -1.15666 0)
(6.24313 -0.980094 0)
(6.53971 -0.791035 0)
(6.9056 -0.58044 0)
(7.28965 -0.350468 0)
(7.58024 -0.156846 0)
(7.70041 -0.0736029 0)
(7.67219 -0.11944 0)
(7.59936 -0.232581 0)
(7.58418 -0.345892 0)
(7.72579 -0.424197 0)
(8.06285 -0.451529 0)
(8.53364 -0.396669 0)
(9.08099 -0.231907 0)
(9.66569 -0.0233832 0)
(10.2048 0.109393 0)
(10.6155 0.0622941 0)
(10.8966 -0.18058 0)
(11.1435 -0.476061 0)
(11.427 -0.684997 0)
(11.7463 -0.760848 0)
(12.1168 -0.669687 0)
(0.970565 0.00277551 0)
(2.69014 0.0223821 0)
(4.15449 0.0453962 0)
(5.26002 0.0575368 0)
(5.96959 0.043389 0)
(6.36083 -0.00661113 0)
(6.49316 -0.110524 0)
(6.44478 -0.261958 0)
(6.28108 -0.441706 0)
(6.07037 -0.625784 0)
(5.89436 -0.79626 0)
(5.8482 -0.927345 0)
(5.89038 -1.02772 0)
(5.83833 -1.15266 0)
(5.66499 -1.30003 0)
(5.47409 -1.42832 0)
(5.37958 -1.50722 0)
(5.36573 -1.56173 0)
(5.37965 -1.61745 0)
(5.46597 -1.63295 0)
(5.65532 -1.5695 0)
(5.86142 -1.45943 0)
(6.03707 -1.3293 0)
(6.24197 -1.16441 0)
(6.50981 -0.97097 0)
(6.83666 -0.761975 0)
(7.20832 -0.53237 0)
(7.54893 -0.312354 0)
(7.766 -0.166791 0)
(7.82411 -0.150431 0)
(7.78936 -0.244498 0)
(7.7661 -0.376323 0)
(7.8553 -0.47236 0)
(8.12947 -0.50544 0)
(8.57734 -0.499483 0)
(9.14117 -0.439935 0)
(9.76219 -0.295365 0)
(10.3423 -0.12511 0)
(10.8004 -0.0312615 0)
(11.1207 -0.116734 0)
(11.3609 -0.371783 0)
(11.6246 -0.642729 0)
(11.9258 -0.828109 0)
(12.2497 -0.875622 0)
(12.6134 -0.750546 0)
(0.916635 0.0029809 0)
(2.58708 0.023932 0)
(4.04556 0.0505807 0)
(5.18482 0.0706782 0)
(5.95606 0.0688912 0)
(6.421 0.0375836 0)
(6.65058 -0.0384716 0)
(6.6803 -0.170153 0)
(6.57038 -0.344426 0)
(6.3753 -0.539289 0)
(6.18227 -0.72713 0)
(6.07543 -0.886504 0)
(6.0909 -1.0013 0)
(6.09618 -1.11293 0)
(5.96498 -1.26459 0)
(5.76124 -1.42291 0)
(5.60548 -1.53739 0)
(5.54755 -1.59564 0)
(5.52635 -1.63889 0)
(5.54082 -1.67345 0)
(5.66748 -1.65265 0)
(5.8768 -1.57351 0)
(6.06529 -1.47227 0)
(6.24726 -1.3395 0)
(6.49171 -1.15946 0)
(6.79412 -0.953048 0)
(7.13567 -0.724649 0)
(7.48138 -0.485069 0)
(7.76261 -0.287698 0)
(7.91819 -0.199924 0)
(7.95892 -0.246908 0)
(7.96368 -0.383919 0)
(8.02592 -0.523816 0)
(8.23318 -0.585647 0)
(8.62257 -0.567618 0)
(9.17 -0.532831 0)
(9.82979 -0.481049 0)
(10.4759 -0.381505 0)
(10.9846 -0.262053 0)
(11.3514 -0.207322 0)
(11.6087 -0.320826 0)
(11.8401 -0.561867 0)
(12.1174 -0.798172 0)
(12.4179 -0.960144 0)
(12.7369 -0.977945 0)
(13.0805 -0.827125 0)
(0.862532 0.00297122 0)
(2.48115 0.0244406 0)
(3.92653 0.0534161 0)
(5.08727 0.0798825 0)
(5.91442 0.0896958 0)
(6.43727 0.0719257 0)
(6.75016 0.0215961 0)
(6.86517 -0.0822899 0)
(6.8229 -0.238477 0)
(6.66514 -0.433791 0)
(6.47133 -0.637958 0)
(6.32889 -0.823031 0)
(6.29018 -0.966872 0)
(6.31061 -1.07611 0)
(6.24139 -1.21053 0)
(6.05521 -1.38389 0)
(5.8607 -1.54159 0)
(5.74707 -1.63585 0)
(5.69098 -1.67869 0)
(5.64901 -1.70721 0)
(5.68563 -1.7061 0)
(5.85621 -1.64849 0)
(6.06387 -1.56709 0)
(6.24567 -1.47417 0)
(6.4691 -1.33159 0)
(6.75785 -1.14109 0)
(7.07841 -0.923853 0)
(7.41238 -0.681374 0)
(7.7211 -0.445525 0)
(7.9482 -0.284857 0)
(8.07589 -0.256263 0)
(8.1462 -0.360841 0)
(8.22487 -0.534195 0)
(8.38653 -0.668158 0)
(8.70227 -0.683552 0)
(9.20036 -0.614236 0)
(9.85944 -0.558703 0)
(10.5706 -0.535186 0)
(11.1603 -0.499459 0)
(11.5788 -0.431687 0)
(11.8748 -0.411337 0)
(12.0953 -0.53454 0)
(12.3283 -0.742739 0)
(12.6053 -0.944778 0)
(12.8951 -1.08206 0)
(13.2002 -1.07157 0)
(13.5169 -0.901768 0)
(0.810536 0.00280245 0)
(2.37671 0.0238576 0)
(3.80428 0.053903 0)
(4.97391 0.0848598 0)
(5.84625 0.105383 0)
(6.424 0.0998568 0)
(6.7975 0.0679362 0)
(6.99764 -0.005899 0)
(7.02606 -0.1352 0)
(6.92513 -0.314417 0)
(6.74715 -0.525741 0)
(6.59031 -0.732783 0)
(6.50886 -0.90989 0)
(6.50084 -1.04139 0)
(6.47593 -1.15803 0)
(6.3343 -1.31821 0)
(6.13048 -1.50308 0)
(5.96751 -1.64968 0)
(5.87352 -1.72603 0)
(5.79429 -1.75793 0)
(5.74704 -1.76179 0)
(5.83125 -1.71343 0)
(6.02789 -1.62915 0)
(6.22267 -1.55361 0)
(6.43252 -1.45865 0)
(6.71246 -1.30503 0)
(7.02495 -1.11006 0)
(7.34544 -0.883867 0)
(7.66588 -0.637439 0)
(7.94225 -0.423017 0)
(8.14058 -0.309015 0)
(8.28449 -0.335808 0)
(8.4168 -0.492019 0)
(8.58144 -0.691821 0)
(8.83847 -0.807891 0)
(9.26271 -0.769126 0)
(9.8876 -0.651573 0)
(10.6239 -0.592416 0)
(11.2959 -0.618998 0)
(11.792 -0.65037 0)
(12.1378 -0.625824 0)
(12.3815 -0.63186 0)
(12.581 -0.745324 0)
(12.8139 -0.913982 0)
(13.0796 -1.08441 0)
(13.3516 -1.19645 0)
(13.6364 -1.15995 0)
(13.9262 -0.97508 0)
(0.762367 0.00251579 0)
(2.27683 0.0224887 0)
(3.68469 0.0523502 0)
(4.853 0.0855761 0)
(5.75402 0.114709 0)
(6.38705 0.122849 0)
(6.80588 0.103786 0)
(7.07848 0.0554208 0)
(7.18044 -0.0436989 0)
(7.14094 -0.195437 0)
(6.99957 -0.39523 0)
(6.83979 -0.61478 0)
(6.73722 -0.819645 0)
(6.69478 -0.988251 0)
(6.67132 -1.11547 0)
(6.5807 -1.249 0)
(6.39296 -1.42953 0)
(6.19939 -1.61379 0)
(6.06474 -1.74477 0)
(5.96257 -1.81053 0)
(5.86295 -1.83072 0)
(5.84559 -1.79621 0)
(5.98228 -1.70054 0)
(6.1798 -1.60477 0)
(6.38103 -1.53072 0)
(6.64756 -1.42274 0)
(6.96298 -1.26417 0)
(7.27896 -1.068 0)
(7.60107 -0.837113 0)
(7.91311 -0.602422 0)
(8.172 -0.425294 0)
(8.3826 -0.360556 0)
(8.57603 -0.439628 0)
(8.77956 -0.639832 0)
(9.02645 -0.856252 0)
(9.38295 -0.943713 0)
(9.94096 -0.843627 0)
(10.6678 -0.68902 0)
(11.3906 -0.651571 0)
(11.9677 -0.738587 0)
(12.378 -0.823927 0)
(12.6691 -0.833896 0)
(12.874 -0.856456 0)
(13.0627 -0.947552 0)
(13.2893 -1.07732 0)
(13.5351 -1.21914 0)
(13.7842 -1.30543 0)
(14.0475 -1.24502 0)
(14.3119 -1.04651 0)
(0.718811 0.00219827 0)
(2.18329 0.0206091 0)
(3.57138 0.0494939 0)
(4.73324 0.0826804 0)
(5.64547 0.117178 0)
(6.32523 0.13916 0)
(6.78862 0.133026 0)
(7.11207 0.102531 0)
(7.28938 0.032695 0)
(7.30974 -0.0892949 0)
(7.21872 -0.261817 0)
(7.06977 -0.475876 0)
(6.95466 -0.696382 0)
(6.89429 -0.897544 0)
(6.85238 -1.06162 0)
(6.78584 -1.19283 0)
(6.63498 -1.34652 0)
(6.42867 -1.53633 0)
(6.25515 -1.70999 0)
(6.13033 -1.82793 0)
(6.01091 -1.88901 0)
(5.92015 -1.89037 0)
(5.96302 -1.80787 0)
(6.13323 -1.67865 0)
(6.32767 -1.57989 0)
(6.56991 -1.49328 0)
(6.88237 -1.37178 0)
(7.2044 -1.21426 0)
(7.52986 -1.01728 0)
(7.86621 -0.79204 0)
(8.17528 -0.586606 0)
(8.44702 -0.453635 0)
(8.70424 -0.437814 0)
(8.95754 -0.566687 0)
(9.22865 -0.803103 0)
(9.55855 -1.02638 0)
(10.043 -1.06953 0)
(10.7219 -0.905781 0)
(11.4645 -0.739153 0)
(12.1062 -0.744085 0)
(12.5819 -0.885429 0)
(12.9261 -1.00784 0)
(13.1742 -1.04638 0)
(13.3547 -1.0762 0)
(13.5358 -1.13981 0)
(13.7476 -1.23493 0)
(13.9673 -1.35057 0)
(14.1934 -1.40994 0)
(14.435 -1.3272 0)
(14.6767 -1.11578 0)
(0.680129 0.00184846 0)
(2.09647 0.0185834 0)
(3.46546 0.0460929 0)
(4.62082 0.0777047 0)
(5.53138 0.113502 0)
(6.23992 0.146304 0)
(6.75126 0.155962 0)
(7.11052 0.138974 0)
(7.3526 0.0938078 0)
(7.43648 0.000605038 0)
(7.3969 -0.140898 0)
(7.27825 -0.331458 0)
(7.15431 -0.551094 0)
(7.08301 -0.768871 0)
(7.03199 -0.969079 0)
(6.96197 -1.13332 0)
(6.84575 -1.27479 0)
(6.64996 -1.44519 0)
(6.44243 -1.63166 0)
(6.28405 -1.78992 0)
(6.15537 -1.9007 0)
(6.03523 -1.95745 0)
(5.99297 -1.92926 0)
(6.10173 -1.80192 0)
(6.28472 -1.65767 0)
(6.50028 -1.55001 0)
(6.79209 -1.44214 0)
(7.11713 -1.31468 0)
(7.4478 -1.15803 0)
(7.80311 -0.963273 0)
(8.15586 -0.759536 0)
(8.479 -0.593177 0)
(8.79491 -0.503503 0)
(9.10761 -0.537468 0)
(9.41873 -0.7122 0)
(9.75749 -0.979242 0)
(10.1936 -1.1926 0)
(10.8028 -1.17066 0)
(11.5277 -0.958521 0)
(12.2147 -0.809465 0)
(12.755 -0.864546 0)
(13.1449 -1.0464 0)
(13.4391 -1.19286 0)
(13.6571 -1.2551 0)
(13.8231 -1.28584 0)
(13.9938 -1.32245 0)
(14.1829 -1.38827 0)
(14.3752 -1.4782 0)
(14.5795 -1.51009 0)
(14.8003 -1.40619 0)
(15.022 -1.18228 0)
(0.646442 0.00151183 0)
(2.0165 0.0164607 0)
(3.36579 0.0425612 0)
(4.51801 0.0722473 0)
(5.42185 0.106032 0)
(6.13902 0.14401 0)
(6.69304 0.169624 0)
(7.08771 0.167205 0)
(7.37409 0.140543 0)
(7.52517 0.0752424 0)
(7.53387 -0.0382861 0)
(7.45731 -0.197103 0)
(7.33959 -0.39963 0)
(7.25351 -0.617923 0)
(7.20182 -0.834322 0)
(7.12827 -1.03772 0)
(7.02158 -1.20491 0)
(6.85709 -1.36067 0)
(6.63215 -1.53915 0)
(6.43063 -1.71207 0)
(6.27854 -1.85554 0)