/*--------------------------------*- C++ -*----------------------------------*\
| =========                 |                                                 |
| \\      /  F ield         | OpenFOAM: The Open Source CFD Toolbox           |
|  \\    /   O peration     | Version:  5.x                                   |
|   \\  /    A nd           | Web:      www.OpenFOAM.org                      |
|    \\/     M anipulation  |                                                 |
\*---------------------------------------------------------------------------*/
FoamFile
{
    version     2.0;
    format      ascii;
    class       volVectorField;
    location    "0.4";
    object      Urom;
}
// * * * * * * * * * * * * * * * * * * * * * * * * * * * * * * * * * * * * * //

dimensions      [0 1 -1 0 0 0 0];

internalField   nonuniform List<vector> 
17457
(
(-1.17923 -0.00615671 0)
(-1.05015 -0.00635863 0)
(-2.26457 -0.0594049 0)
(-0.936094 -0.00590894 0)
(-2.01768 -0.0539967 0)
(-2.46269 -0.131982 0)
(-0.839732 -0.00549397 0)
(-1.81871 -0.0458467 0)
(-2.23025 -0.110412 0)
(-2.28557 -0.193978 0)
(-0.752359 -0.00594283 0)
(-1.66209 -0.0383443 0)
(-2.07509 -0.0866711 0)
(-2.14988 -0.149161 0)
(-2.10351 -0.228277 0)
(-0.667189 -0.00634661 0)
(-1.52849 -0.034894 0)
(-1.96408 -0.0697422 0)
(-2.08215 -0.110832 0)
(-2.0579 -0.165767 0)
(-2.03142 -0.240959 0)
(-0.591245 -0.00531586 0)
(-1.40567 -0.0324804 0)
(-1.86109 -0.0628477 0)
(-2.03622 -0.0907062 0)
(-2.04377 -0.11933 0)
(-2.02193 -0.169889 0)
(-2.04127 -0.248537 0)
(-0.536725 -0.00317215 0)
(-1.30273 -0.0258731 0)
(-1.75766 -0.0579427 0)
(-1.97931 -0.0855248 0)
(-2.03788 -0.0989077 0)
(-2.02654 -0.119139 0)
(-2.02321 -0.170711 0)
(-2.08665 -0.264357 0)
(-0.503583 -0.00155756 0)
(-1.23258 -0.016068 0)
(-1.6719 -0.0451228 0)
(-1.90448 -0.0810899 0)
(-2.01828 -0.0989515 0)
(-2.03896 -0.0987913 0)
(-2.03321 -0.114961 0)
(-2.04223 -0.174441 0)
(-2.1408 -0.292193 0)
(-0.481873 -0.00069021 0)
(-1.18858 -0.00918834 0)
(-1.61833 -0.0279366 0)
(-1.83204 -0.0626994 0)
(-1.96523 -0.100719 0)
(-2.03484 -0.106778 0)
(-2.05486 -0.0959324 0)
(-2.05109 -0.109314 0)
(-2.07122 -0.183764 0)
(-2.19108 -0.327615 0)
(-0.466343 -0.000437766 0)
(-1.1517 -0.00604707 0)
(-1.58465 -0.0181882 0)
(-1.78581 -0.0388089 0)
(-1.88792 -0.0809857 0)
(-1.98398 -0.120603 0)
(-2.04515 -0.115441 0)
(-2.07079 -0.0938922 0)
(-2.06558 -0.106206 0)
(-2.10012 -0.200324 0)
(-2.2269 -0.365258 0)
(-0.459961 0.000355594 0)
(-1.11812 -0.00350619 0)
(-1.54551 -0.0162201 0)
(-1.76335 -0.0274179 0)
(-1.83267 -0.0481264 0)
(-1.89626 -0.102643 0)
(-1.98207 -0.143047 0)
(-2.04897 -0.127799 0)
(-2.06797 -0.0947217 0)
(-2.06285 -0.110879 0)
(-2.113 -0.226926 0)
(-2.23797 -0.404844 0)
(-0.464097 0.0013523 0)
(-1.09912 0.000881569 0)
(-1.49551 -0.0125707 0)
(-1.73652 -0.0293966 0)
(-1.82277 -0.0312602 0)
(-1.83502 -0.056428 0)
(-1.89545 -0.125823 0)
(-1.98213 -0.166287 0)
(-2.04096 -0.140831 0)
(-2.04 -0.0993 0)
(-2.03571 -0.125973 0)
(-2.09715 -0.26547 0)
(-2.21843 -0.451341 0)
(-0.472866 0.00170745 0)
(-1.0942 0.00446566 0)
(-1.45241 -0.00459384 0)
(-1.68283 -0.0288295 0)
(-1.82225 -0.0383246 0)
(-1.83949 -0.0283968 0)
(-1.84049 -0.0631529 0)
(-1.9157 -0.146948 0)
(-1.99364 -0.184517 0)
(-2.02034 -0.149029 0)
(-1.99364 -0.105964 0)
(-1.98774 -0.150419 0)
(-2.05162 -0.31458 0)
(-2.16618 -0.509488 0)
(-0.479229 0.00142888 0)
(-1.08837 0.00472038 0)
(-1.41835 0.000406073 0)
(-1.61349 -0.0203578 0)
(-1.78092 -0.04747 0)
(-1.86479 -0.0405873 0)
(-1.85326 -0.0204235 0)
(-1.87608 -0.0688188 0)
(-1.96588 -0.161487 0)
(-2.0116 -0.191154 0)
(-1.99214 -0.148069 0)
(-1.93983 -0.110766 0)
(-1.92927 -0.179463 0)
(-1.98515 -0.37053 0)
(-2.07808 -0.578152 0)
(-0.482548 0.00155943 0)
(-1.072 0.002664 0)
(-1.37193 -0.00225009 0)
(-1.53872 -0.0167321 0)
(-1.69115 -0.0453886 0)
(-1.83753 -0.0665867 0)
(-1.88673 -0.0387351 0)
(-1.87818 -0.0131013 0)
(-1.94631 -0.0756636 0)
(-2.02948 -0.165774 0)
(-2.02744 -0.183415 0)
(-1.96113 -0.13587 0)
(-1.88846 -0.111515 0)
(-1.86717 -0.207471 0)
(-1.90426 -0.427484 0)
(-1.94745 -0.650611 0)
(-0.485868 0.00213923 0)
(-1.04697 0.00176302 0)
(-1.3014 -0.00881547 0)
(-1.43759 -0.0264674 0)
(-1.57119 -0.0479588 0)
(-1.73095 -0.0795249 0)
(-1.85909 -0.0873838 0)
(-1.88959 -0.0392033 0)
(-1.91798 -0.0151033 0)
(-2.02962 -0.0852828 0)
(-2.08087 -0.159963 0)
(-2.03195 -0.16381 0)
(-1.9278 -0.114103 0)
(-1.84242 -0.108609 0)
(-1.8012 -0.231524 0)
(-1.80302 -0.477969 0)
(-1.76885 -0.720741 0)
(-0.486063 0.00243309 0)
(-1.01467 0.00115159 0)
(-1.21399 -0.012969 0)
(-1.29664 -0.040548 0)
(-1.41357 -0.0684838 0)
(-1.56967 -0.0930351 0)
(-1.73707 -0.122078 0)
(-1.84313 -0.112671 0)
(-1.87625 -0.0501173 0)
(-1.96701 -0.0336542 0)
(-2.09275 -0.0972838 0)
(-2.10297 -0.148463 0)
(-2.01594 -0.136631 0)
(-1.88876 -0.0882533 0)
(-1.79249 -0.102633 0)
(-1.72415 -0.249851 0)
(-1.66655 -0.515317 0)
(-1.54819 -0.78543 0)
(-0.47272 0.00152832 0)
(-0.964281 -0.00318881 0)
(-1.11446 -0.0174224 0)
(-1.13273 -0.048859 0)
(-1.20557 -0.0925898 0)
(-1.36599 -0.126689 0)
(-1.54733 -0.14989 0)
(-1.71206 -0.17136 0)
(-1.79646 -0.143651 0)
(-1.86057 -0.0784465 0)
(-2.0059 -0.0684574 0)
(-2.11207 -0.111459 0)
(-2.09045 -0.136389 0)
(-1.97433 -0.106482 0)
(-1.83742 -0.0639857 0)
(-1.72129 -0.0946143 0)
(-1.61866 -0.261625 0)
(-1.48525 -0.537861 0)
(-1.30784 -0.842995 0)
(-0.439713 0.000315053 0)
(-0.879374 -0.0122049 0)
(-0.991454 -0.0297581 0)
(-0.961938 -0.0564832 0)
(-0.971738 -0.104315 0)
(-1.10927 -0.162605 0)
(-1.31375 -0.197174 0)
(-1.51264 -0.215312 0)
(-1.66533 -0.222839 0)
(-1.74086 -0.181313 0)
(-1.85272 -0.124903 0)
(-2.01098 -0.112503 0)
(-2.08519 -0.130077 0)
(-2.04067 -0.126903 0)
(-1.90539 -0.0796029 0)
(-1.75962 -0.0435425 0)
(-1.6093 -0.0875581 0)
(-1.46186 -0.270235 0)
(-1.26519 -0.55207 0)
(-1.0725 -0.892675 0)
(-0.388427 -0.000885833 0)
(-0.757825 -0.0205115 0)
(-0.830832 -0.0487593 0)
(-0.776327 -0.0752914 0)
(-0.744296 -0.111735 0)
(-0.827326 -0.176023 0)
(-1.03307 -0.24504 0)
(-1.26585 -0.275431 0)
(-1.47694 -0.283947 0)
(-1.61093 -0.271926 0)
(-1.70156 -0.227589 0)
(-1.84417 -0.181828 0)
(-1.97391 -0.158927 0)
(-2.01984 -0.154688 0)
(-1.94832 -0.122193 0)
(-1.80213 -0.0626902 0)
(-1.63132 -0.0290398 0)
(-1.43665 -0.0873058 0)
(-1.24415 -0.282096 0)
(-1.02546 -0.568363 0)
(-0.849743 -0.935957 0)
(-0.324349 -0.00167054 0)
(-0.612613 -0.0265517 0)
(-0.637296 -0.0639839 0)
(-0.56082 -0.102814 0)
(-0.516854 -0.134273 0)
(-0.563672 -0.179586 0)
(-0.729817 -0.259057 0)
(-0.981077 -0.333844 0)
(-1.23516 -0.357755 0)
(-1.44547 -0.349506 0)
(-1.56737 -0.319282 0)
(-1.68524 -0.281004 0)
(-1.81675 -0.238197 0)
(-1.90477 -0.206049 0)
(-1.91711 -0.182513 0)
(-1.80928 -0.1259 0)
(-1.6466 -0.0591164 0)
(-1.42871 -0.0244502 0)
(-1.19579 -0.0996727 0)
(-0.981998 -0.30346 0)
(-0.780833 -0.597128 0)
(-0.6295 -0.976797 0)
(-0.251815 -0.00250657 0)
(-0.456488 -0.0304609 0)
(-0.431838 -0.0724562 0)
(-0.323633 -0.122423 0)
(-0.26886 -0.168021 0)
(-0.312397 -0.202974 0)
(-0.448539 -0.256011 0)
(-0.676681 -0.347834 0)
(-0.954645 -0.424986 0)
(-1.22476 -0.440256 0)
(-1.41647 -0.409301 0)
(-1.54686 -0.369474 0)
(-1.67564 -0.33469 0)
(-1.76309 -0.287853 0)
(-1.81362 -0.252109 0)
(-1.77068 -0.209646 0)
(-1.62376 -0.139681 0)
(-1.42027 -0.0653998 0)
(-1.14922 -0.0325015 0)
(-0.902497 -0.128691 0)
(-0.698548 -0.341371 0)
(-0.529688 -0.645132 0)
(-0.395357 -1.02134 0)
(-0.173831 -0.00271242 0)
(-0.290288 -0.0343691 0)
(-0.229233 -0.0785313 0)
(-0.0914817 -0.128946 0)
(-0.0118124 -0.188195 0)
(-0.0508474 -0.239879 0)
(-0.192183 -0.277119 0)
(-0.396428 -0.335592 0)
(-0.658869 -0.437502 0)
(-0.954652 -0.51695 0)
(-1.21863 -0.519011 0)
(-1.39002 -0.467835 0)
(-1.54203 -0.42446 0)
(-1.64933 -0.382299 0)
(-1.68792 -0.331338 0)
(-1.6934 -0.292523 0)
(-1.58032 -0.234072 0)
(-1.39014 -0.15841 0)
(-1.1229 -0.0747279 0)
(-0.81628 -0.0544405 0)
(-0.581779 -0.177508 0)
(-0.40057 -0.401713 0)
(-0.26118 -0.716121 0)
(-0.135446 -1.07695 0)
(-0.0991792 -0.00258214 0)
(-0.116738 -0.0346748 0)
(-0.0264287 -0.0846126 0)
(0.118877 -0.133103 0)
(0.223745 -0.187598 0)
(0.209371 -0.256917 0)
(0.0661241 -0.314741 0)
(-0.153382 -0.351854 0)
(-0.393945 -0.413539 0)
(-0.672466 -0.526091 0)
(-0.971254 -0.60733 0)
(-1.19629 -0.592652 0)
(-1.36703 -0.533177 0)
(-1.5274 -0.482903 0)
(-1.58992 -0.424484 0)
(-1.58787 -0.371887 0)
(-1.52779 -0.324892 0)
(-1.34885 -0.256151 0)
(-1.10377 -0.174358 0)
(-0.773984 -0.0847071 0)
(-0.461753 -0.0916175 0)
(-0.249279 -0.245992 0)
(-0.0836941 -0.485338 0)
(0.0317139 -0.812502 0)
(0.156995 -1.14738 0)
(-0.0360457 -0.00211032 0)
(0.0420252 -0.0303249 0)
(0.174511 -0.0824951 0)
(0.309332 -0.137078 0)
(0.416767 -0.183703 0)
(0.433233 -0.243995 0)
(0.316587 -0.325133 0)
(0.0853406 -0.388534 0)
(-0.175122 -0.42208 0)
(-0.425738 -0.487998 0)
(-0.712328 -0.613349 0)
(-0.979742 -0.690635 0)
(-1.15343 -0.664762 0)
(-1.33581 -0.609798 0)
(-1.47267 -0.544898 0)
(-1.48584 -0.468622 0)
(-1.44283 -0.413353 0)
(-1.30701 -0.352356 0)
(-1.07148 -0.276874 0)
(-0.765061 -0.18447 0)
(-0.400282 -0.0990214 0)
(-0.108289 -0.14432 0)
(0.0906103 -0.328376 0)
(0.250515 -0.589471 0)
(0.349208 -0.932558 0)
(0.488983 -1.23193 0)
(0.0192336 -0.0025956 0)
(0.166916 -0.0245215 0)
(0.348517 -0.0689063 0)
(0.480518 -0.129382 0)
(0.566222 -0.179797 0)
(0.596123 -0.225428 0)
(0.517931 -0.295211 0)
(0.313071 -0.38957 0)
(0.0313081 -0.456452 0)
(-0.226217 -0.484994 0)
(-0.481136 -0.560903 0)
(-0.764726 -0.695678 0)
(-0.959659 -0.761375 0)
(-1.0965 -0.741835 0)
(-1.27075 -0.696515 0)
(-1.35561 -0.612875 0)
(-1.32493 -0.522881 0)
(-1.23457 -0.458283 0)
(-1.02945 -0.379547 0)
(-0.74197 -0.296034 0)
(-0.38708 -0.191551 0)
(-0.0252353 -0.123218 0)
(0.236553 -0.208786 0)
(0.435635 -0.417052 0)
(0.591656 -0.70937 0)
(0.691404 -1.06765 0)
(0.864988 -1.32768 0)
(0.0722123 -0.0029916 0)
(0.266836 -0.0224529 0)
(0.475878 -0.0536606 0)
(0.618385 -0.104822 0)
(0.679032 -0.163552 0)
(0.697684 -0.208908 0)
(0.645054 -0.257116 0)
(0.480215 -0.339067 0)
(0.21686 -0.445912 0)
(-0.0590728 -0.512121 0)
(-0.285129 -0.54129 0)
(-0.553037 -0.635054 0)
(-0.806277 -0.765916 0)
(-0.911746 -0.818946 0)
(-1.02442 -0.825807 0)
(-1.1513 -0.788133 0)
(-1.16887 -0.688087 0)
(-1.10219 -0.589761 0)
(-0.961157 -0.50552 0)
(-0.698737 -0.407258 0)
(-0.368264 -0.313434 0)
(0.00585163 -0.201429 0)
(0.336243 -0.159831 0)
(0.577069 -0.277872 0)
(0.78097 -0.508306 0)
(0.933759 -0.838584 0)
(1.06244 -1.20479 0)
(1.27248 -1.43424 0)
(0.119319 -0.00270596 0)
(0.354836 -0.0207534 0)
(0.569118 -0.0458656 0)
(0.713213 -0.0791824 0)
(0.759741 -0.129414 0)
(0.754047 -0.182669 0)
(0.708659 -0.225909 0)
(0.571653 -0.28038 0)
(0.336195 -0.373848 0)
(0.0602686 -0.486965 0)
(-0.156196 -0.549524 0)
(-0.352059 -0.594873 0)
(-0.631135 -0.708141 0)
(-0.813088 -0.816909 0)
(-0.846529 -0.869378 0)
(-0.929228 -0.909809 0)
(-0.975862 -0.874506 0)
(-0.923991 -0.767885 0)
(-0.824911 -0.664665 0)
(-0.632099 -0.552168 0)
(-0.32792 -0.433926 0)
(0.0258322 -0.328975 0)
(0.388887 -0.21804 0)
(0.682889 -0.206083 0)
(0.92045 -0.34828 0)
(1.12346 -0.605102 0)
(1.28163 -0.969479 0)
(1.45815 -1.33303 0)
(1.68316 -1.55617 0)
(0.154953 -0.00199577 0)
(0.425849 -0.0162629 0)
(0.645971 -0.039938 0)
(0.776578 -0.0650751 0)
(0.813388 -0.0955224 0)
(0.782924 -0.141818 0)
(0.729676 -0.189707 0)
(0.613844 -0.236181 0)
(0.396983 -0.297846 0)
(0.1203 -0.397217 0)
(-0.115747 -0.505489 0)
(-0.250851 -0.56845 0)
(-0.436324 -0.648426 0)
(-0.693796 -0.771619 0)
(-0.773798 -0.848698 0)
(-0.769281 -0.918604 0)
(-0.804658 -0.983109 0)
(-0.757156 -0.945064 0)
(-0.644426 -0.845879 0)
(-0.505185 -0.738643 0)
(-0.262061 -0.595613 0)
(0.0616871 -0.45943 0)
(0.414941 -0.343747 0)
(0.749932 -0.242597 0)
(1.02603 -0.257148 0)
(1.26989 -0.421551 0)
(1.46829 -0.709887 0)
(1.64252 -1.0942 0)
(1.85788 -1.44983 0)
(2.0703 -1.69508 0)
(0.177646 -0.00121985 0)
(0.471163 -0.00999546 0)
(0.70607 -0.0294436 0)
(0.82637 -0.056138 0)
(0.849361 -0.0768693 0)
(0.802265 -0.104243 0)
(0.727078 -0.144185 0)
(0.622964 -0.190777 0)
(0.431394 -0.244912 0)
(0.155853 -0.311972 0)
(-0.116991 -0.407085 0)
(-0.272949 -0.500325 0)
(-0.345209 -0.576577 0)
(-0.532836 -0.700613 0)
(-0.712635 -0.815836 0)
(-0.69618 -0.870391 0)
(-0.677451 -0.967113 0)
(-0.646196 -1.03709 0)
(-0.509861 -0.996398 0)
(-0.347287 -0.915523 0)
(-0.154037 -0.802693 0)
(0.129192 -0.635672 0)
(0.449603 -0.486192 0)
(0.785441 -0.361587 0)
(1.09687 -0.273772 0)
(1.37806 -0.309729 0)
(1.62536 -0.502361 0)
(1.81956 -0.819811 0)
(2.00821 -1.20812 0)
(2.23629 -1.55893 0)
(2.41768 -1.84573 0)
(0.190584 -0.000158335 0)
(0.494434 -0.00503202 0)
(0.743653 -0.0167571 0)
(0.869812 -0.042226 0)
(0.881678 -0.0677808 0)
(0.824475 -0.0852251 0)
(0.725112 -0.108193 0)
(0.612392 -0.141576 0)
(0.445905 -0.19234 0)
(0.191133 -0.255721 0)
(-0.103703 -0.323687 0)
(-0.322892 -0.403496 0)
(-0.385587 -0.479653 0)
(-0.436469 -0.586102 0)
(-0.610791 -0.746973 0)
(-0.672479 -0.837829 0)
(-0.599718 -0.891157 0)
(-0.563743 -1.00944 0)
(-0.44998 -1.06803 0)
(-0.243497 -1.03161 0)
(-0.0370254 -0.972023 0)
(0.216285 -0.851389 0)
(0.520024 -0.673591 0)
(0.824562 -0.516675 0)
(1.14148 -0.385335 0)
(1.4471 -0.30802 0)
(1.73857 -0.365821 0)
(1.98111 -0.591537 0)
(2.16913 -0.929895 0)
(2.3587 -1.31033 0)
(2.57578 -1.66192 0)
(2.71471 -1.99972 0)
(0.200378 0.000115344 0)
(0.50924 -0.00287581 0)
(0.765052 -0.00825494 0)
(0.906362 -0.0259606 0)
(0.921015 -0.0542525 0)
(0.861005 -0.0789058 0)
(0.746125 -0.094679 0)
(0.605106 -0.110151 0)
(0.443545 -0.139386 0)
(0.220835 -0.198027 0)
(-0.0640621 -0.270623 0)
(-0.327755 -0.332975 0)
(-0.457641 -0.390047 0)
(-0.445742 -0.458493 0)
(-0.507975 -0.607803 0)
(-0.63112 -0.782139 0)
(-0.583115 -0.845299 0)
(-0.49691 -0.914318 0)
(-0.421391 -1.03676 0)
(-0.218852 -1.07572 0)
(0.0360022 -1.05421 0)
(0.286262 -1.01058 0)
(0.590103 -0.884463 0)
(0.894052 -0.710032 0)
(1.18592 -0.54949 0)
(1.49595 -0.412806 0)
(1.80595 -0.343773 0)
(2.09523 -0.426692 0)
(2.3247 -0.683178 0)
(2.4978 -1.03409 0)
(2.67869 -1.40045 0)
(2.86661 -1.75948 0)
(2.9491 -2.15285 0)
(0.212044 0.000133959 0)
(0.529606 -0.00309776 0)
(0.784865 -0.00731702 0)
(0.938113 -0.0160163 0)
(0.963346 -0.0374254 0)
(0.912849 -0.0673628 0)
(0.802195 -0.0945586 0)
(0.63351 -0.107972 0)
(0.443462 -0.113527 0)
(0.233296 -0.14077 0)
(-0.0164515 -0.209198 0)
(-0.28422 -0.289132 0)
(-0.473698 -0.340044 0)
(-0.50428 -0.373544 0)
(-0.458786 -0.452542 0)
(-0.534421 -0.644084 0)
(-0.574212 -0.804837 0)
(-0.463992 -0.85189 0)
(-0.383872 -0.939058 0)
(-0.246489 -1.04199 0)
(0.0334442 -1.06272 0)
(0.32067 -1.06221 0)
(0.617548 -1.02623 0)
(0.94998 -0.903749 0)
(1.2454 -0.743273 0)
(1.53805 -0.579163 0)
(1.85342 -0.438817 0)
(2.16004 -0.380095 0)
(2.43046 -0.487917 0)
(2.63764 -0.769685 0)
(2.79162 -1.12608 0)
(2.95951 -1.47753 0)
(3.09956 -1.85685 0)
(3.11172 -2.30565 0)
(0.224397 0.000485572 0)
(0.561264 -0.00390425 0)
(0.817538 -0.0106712 0)
(0.975646 -0.0167075 0)
(1.00501 -0.0283401 0)
(0.961697 -0.0504599 0)
(0.875952 -0.0842496 0)
(0.712139 -0.117896 0)
(0.485398 -0.126891 0)
(0.242704 -0.121461 0)
(0.0108642 -0.146006 0)
(-0.223105 -0.225835 0)
(-0.426708 -0.310081 0)
(-0.521603 -0.345846 0)
(-0.470966 -0.362954 0)
(-0.431964 -0.471458 0)
(-0.495059 -0.688013 0)
(-0.44625 -0.821089 0)
(-0.322942 -0.8708 0)
(-0.244791 -0.963569 0)
(-0.038285 -1.02485 0)
(0.288864 -1.03318 0)
(0.602684 -1.04969 0)
(0.942733 -1.01782 0)
(1.28237 -0.910888 0)
(1.57619 -0.765786 0)
(1.88248 -0.599135 0)
(2.20172 -0.458616 0)
(2.48878 -0.413978 0)
(2.7274 -0.544229 0)
(2.90609 -0.844572 0)
(3.04486 -1.19953 0)
(3.19161 -1.54381 0)
(3.26539 -1.96008 0)
(3.20975 -2.45974 0)
(0.234246 0.00140682 0)
(0.60135 -0.00362385 0)
(0.873744 -0.0157398 0)
(1.03112 -0.0260116 0)
(1.06248 -0.0329557 0)
(1.00372 -0.0439469 0)
(0.93288 -0.0641072 0)
(0.809356 -0.107213 0)
(0.587281 -0.149805 0)
(0.300571 -0.153633 0)
(0.0270914 -0.134116 0)
(-0.184694 -0.15437 0)
(-0.360878 -0.246188 0)
(-0.47369 -0.332131 0)
(-0.472786 -0.352286 0)
(-0.378847 -0.369172 0)
(-0.365116 -0.515271 0)
(-0.38311 -0.731911 0)
(-0.265605 -0.841844 0)
(-0.155893 -0.909267 0)
(-0.0612956 -0.986079 0)
(0.2004 -0.994667 0)
(0.539787 -0.993234 0)
(0.878023 -1.01363 0)
(1.2452 -0.987384 0)
(1.5839 -0.90353 0)
(1.89074 -0.769248 0)
(2.21356 -0.603069 0)
(2.52358 -0.470675 0)
(2.77691 -0.444388 0)
(2.9764 -0.593255 0)
(3.12666 -0.903704 0)
(3.25323 -1.25081 0)
(3.36141 -1.60456 0)
(3.3679 -2.07151 0)
(3.27529 -2.61659 0)
(0.240572 0.00221812 0)
(0.649134 -0.00286746 0)
(0.957835 -0.0199681 0)
(1.12289 -0.0409808 0)
(1.15488 -0.0516829 0)
(1.07457 -0.0585838 0)
(0.974982 -0.0609216 0)
(0.879867 -0.0803153 0)
(0.708965 -0.137921 0)
(0.429271 -0.191698 0)
(0.098623 -0.189597 0)
(-0.159515 -0.150429 0)
(-0.314921 -0.166402 0)
(-0.41113 -0.268572 0)
(-0.428674 -0.353378 0)
(-0.344994 -0.363085 0)
(-0.245851 -0.400259 0)
(-0.248781 -0.577008 0)
(-0.204515 -0.774067 0)
(-0.0511482 -0.876903 0)
(0.0434508 -0.965667 0)
(0.177023 -1.00652 0)
(0.464571 -0.967336 0)
(0.792372 -0.950916 0)
(1.14579 -0.958784 0)
(1.51752 -0.939835 0)
(1.86024 -0.876482 0)
(2.19194 -0.750806 0)
(2.52027 -0.592673 0)
(2.80473 -0.477155 0)
(3.01807 -0.471803 0)
(3.1792 -0.635119 0)
(3.30371 -0.94554 0)
(3.4092 -1.28385 0)
(3.46727 -1.66548 0)
(3.4344 -2.18947 0)
(3.35121 -2.77599 0)
(0.249048 0.00226788 0)
(0.707387 -0.0033436 0)
(1.07103 -0.0242824 0)
(1.26927 -0.0566788 0)
(1.30162 -0.0822698 0)
(1.21494 -0.0934162 0)
(1.0601 -0.0940638 0)
(0.936136 -0.0819005 0)
(0.801672 -0.103793 0)
(0.581018 -0.178691 0)
(0.25486 -0.246069 0)
(-0.0751174 -0.233815 0)
(-0.270501 -0.17177 0)
(-0.355268 -0.18523 0)
(-0.375196 -0.293355 0)
(-0.30439 -0.372093 0)
(-0.164078 -0.383895 0)
(-0.0793777 -0.456991 0)
(-0.0725062 -0.649651 0)
(0.027567 -0.819574 0)
(0.180689 -0.930929 0)
(0.278282 -1.0304 0)
(0.464453 -1.02829 0)
(0.748766 -0.955136 0)
(1.05495 -0.913744 0)
(1.40256 -0.896744 0)
(1.76544 -0.879642 0)
(2.12371 -0.826436 0)
(2.47642 -0.713168 0)
(2.79174 -0.574321 0)
(3.03862 -0.479997 0)
(3.21525 -0.49549 0)
(3.3439 -0.67062 0)
(3.44266 -0.97394 0)
(3.51341 -1.31168 0)
(3.53192 -1.7299 0)
(3.49974 -2.30689 0)
(3.45248 -2.92471 0)
(0.263862 0.00210155 0)
(0.781814 -0.00632538 0)
(1.20787 -0.0300405 0)
(1.46734 -0.06991 0)
(1.52161 -0.115312 0)
(1.43546 -0.143765 0)
(1.25222 -0.154951 0)
(1.05051 -0.140756 0)
(0.889881 -0.113135 0)
(0.707742 -0.139245 0)
(0.442805 -0.233679 0)
(0.102653 -0.313934 0)
(-0.166662 -0.285099 0)
(-0.274824 -0.202966 0)
(-0.301253 -0.216568 0)
(-0.259679 -0.321742 0)
(-0.118298 -0.390295 0)
(0.0468243 -0.419708 0)
(0.120422 -0.533383 0)
(0.163884 -0.727497 0)
(0.295673 -0.877432 0)
(0.421011 -1.00235 0)
(0.546853 -1.0912 0)
(0.779086 -1.05402 0)
(1.04391 -0.960773 0)
(1.32407 -0.885234 0)
(1.64743 -0.836266 0)
(2.00411 -0.806691 0)
(2.38261 -0.755967 0)
(2.73699 -0.663006 0)
(3.01934 -0.550832 0)
(3.22635 -0.478395 0)
(3.37595 -0.513759 0)
(3.479 -0.701142 0)
(3.54948 -1.00098 0)
(3.58323 -1.34764 0)
(3.58693 -1.79602 0)
(3.57454 -2.40811 0)
(3.56134 -3.04364 0)
(0.285935 0.00135908 0)
(0.87143 -0.00924156 0)
(1.35905 -0.0373327 0)
(1.68731 -0.0790668 0)
(1.79567 -0.13769 0)
(1.72294 -0.193341 0)
(1.54534 -0.226467 0)
(1.29135 -0.235803 0)
(1.05127 -0.202148 0)
(0.841626 -0.160345 0)
(0.615637 -0.191299 0)
(0.326046 -0.306432 0)
(0.024942 -0.39324 0)
(-0.138222 -0.344192 0)
(-0.167285 -0.251776 0)
(-0.158491 -0.266521 0)
(-0.0704683 -0.356795 0)
(0.110641 -0.415129 0)
(0.274822 -0.471848 0)
(0.354947 -0.619368 0)
(0.447009 -0.807047 0)
(0.577359 -0.953895 0)
(0.672205 -1.08404 0)
(0.839977 -1.14049 0)
(1.0915 -1.08354 0)
(1.33328 -0.977195 0)
(1.5891 -0.864821 0)
(1.88729 -0.779284 0)
(2.24557 -0.723072 0)
(2.6315 -0.67266 0)
(2.96338 -0.607463 0)
(3.20153 -0.524421 0)
(3.37756 -0.470435 0)
(3.50939 -0.526406 0)
(3.59167 -0.73166 0)
(3.63209 -1.03987 0)
(3.64197 -1.39503 0)
(3.64292 -1.85608 0)
(3.64604 -2.48051 0)
(3.66666 -3.12541 0)
(0.317766 0.000207161 0)
(0.973247 -0.0125456 0)
(1.5171 -0.0433826 0)
(1.89625 -0.0855911 0)
(2.07153 -0.144009 0)
(2.03427 -0.21955 0)
(1.87339 -0.283591 0)
(1.62967 -0.324924 0)
(1.3307 -0.331067 0)
(1.05569 -0.279811 0)
(0.803972 -0.22643 0)
(0.551693 -0.264392 0)
(0.274017 -0.397242 0)
(0.0630555 -0.480182 0)
(0.0162463 -0.414515 0)
(0.0372496 -0.325852 0)
(0.0668699 -0.338509 0)
(0.183826 -0.40461 0)
(0.368986 -0.455991 0)
(0.518369 -0.539368 0)
(0.621061 -0.705147 0)
(0.750667 -0.888964 0)
(0.852674 -1.04902 0)
(0.940485 -1.16491 0)
(1.14065 -1.18038 0)
(1.37946 -1.11421 0)
(1.60261 -0.994727 0)
(1.84446 -0.850417 0)
(2.13503 -0.725272 0)
(2.49218 -0.635961 0)
(2.85873 -0.586198 0)
(3.14925 -0.552543 0)
(3.3483 -0.496414 0)
(3.50749 -0.457372 0)
(3.62677 -0.538665 0)
(3.68793 -0.770876 0)
(3.70086 -1.09482 0)
(3.6987 -1.44792 0)
(3.69385 -1.9051 0)
(3.71677 -2.52492 0)
(3.78753 -3.17806 0)
(0.356258 -0.000799485 0)
(1.08495 -0.0154611 0)
(1.68534 -0.0481823 0)
(2.08533 -0.0919933 0)
(2.31045 -0.141418 0)
(2.32084 -0.217908 0)
(2.17757 -0.304711 0)
(1.96091 -0.3772 0)
(1.67514 -0.429154 0)
(1.35579 -0.433547 0)
(1.06182 -0.371157 0)
(0.794548 -0.311724 0)
(0.547698 -0.359189 0)
(0.323266 -0.502528 0)
(0.22929 -0.571451 0)
(0.274988 -0.500543 0)
(0.319664 -0.427476 0)
(0.366538 -0.433313 0)
(0.489945 -0.47384 0)
(0.651878 -0.520589 0)
(0.783198 -0.620485 0)
(0.908156 -0.787128 0)
(1.04278 -0.976616 0)
(1.1151 -1.15332 0)
(1.22519 -1.2362 0)
(1.43191 -1.21761 0)
(1.64068 -1.14586 0)
(1.85289 -1.01029 0)
(2.10049 -0.838615 0)
(2.39957 -0.676221 0)
(2.7385 -0.556818 0)
(3.05946 -0.509806 0)
(3.30317 -0.505161 0)
(3.48047 -0.47019 0)
(3.63424 -0.447855 0)
(3.73904 -0.561808 0)
(3.7727 -0.827965 0)
(3.76428 -1.16073 0)
(3.75178 -1.50376 0)
(3.75377 -1.94661 0)
(3.81693 -2.55513 0)
(3.95438 -3.21336 0)
(0.38889 -0.000485645 0)
(1.19201 -0.0154135 0)
(1.86547 -0.0507407 0)
(2.28091 -0.0998199 0)
(2.50695 -0.144415 0)
(2.56828 -0.202687 0)
(2.44201 -0.293999 0)
(2.2309 -0.385712 0)
(1.97906 -0.466533 0)
(1.67438 -0.529833 0)
(1.3608 -0.536026 0)
(1.07821 -0.471055 0)
(0.834647 -0.412697 0)
(0.628355 -0.472089 0)
(0.486142 -0.615899 0)
(0.505569 -0.666327 0)
(0.605627 -0.605087 0)
(0.663301 -0.553539 0)
(0.723963 -0.551531 0)
(0.832359 -0.572032 0)
(0.960136 -0.612943 0)
(1.07179 -0.713757 0)
(1.19797 -0.870771 0)
(1.3035 -1.07285 0)
(1.37199 -1.25117 0)
(1.51631 -1.29761 0)
(1.70718 -1.26157 0)
(1.89184 -1.18231 0)
(2.10539 -1.02664 0)
(2.37329 -0.829419 0)
(2.67857 -0.639492 0)
(2.97996 -0.500463 0)
(3.2442 -0.458192 0)
(3.45029 -0.474888 0)
(3.62236 -0.454308 0)
(3.77153 -0.455589 0)
(3.85109 -0.61043 0)
(3.85102 -0.905473 0)
(3.82982 -1.23428 0)
(3.82256 -1.56717 0)
(3.86069 -1.99299 0)
(3.97672 -2.5862 0)
(4.18264 -3.23838 0)
(0.405387 -6.37625e-05 0)
(1.26977 -0.0101297 0)
(2.03476 -0.0451945 0)
(2.50498 -0.104172 0)
(2.70673 -0.15882 0)
(2.7805 -0.199857 0)
(2.69142 -0.271269 0)
(2.47087 -0.370142 0)
(2.21423 -0.462096 0)
(1.93966 -0.549094 0)
(1.63753 -0.621783 0)
(1.35886 -0.633055 0)
(1.12298 -0.573596 0)
(0.941506 -0.522924 0)
(0.798483 -0.596431 0)
(0.750459 -0.73023 0)
(0.855769 -0.766058 0)
(0.979137 -0.726805 0)
(1.05238 -0.697794 0)
(1.11572 -0.693757 0)
(1.19662 -0.700311 0)
(1.29032 -0.732949 0)
(1.37555 -0.821526 0)
(1.47214 -0.966035 0)
(1.54063 -1.17504 0)
(1.63447 -1.3349 0)
(1.80114 -1.35649 0)
(1.97527 -1.31805 0)
(2.15426 -1.22871 0)
(2.3827 -1.05 0)
(2.66934 -0.82788 0)
(2.96269 -0.624395 0)
(3.2185 -0.479478 0)
(3.43498 -0.442949 0)
(3.61825 -0.471367 0)
(3.78801 -0.460569 0)
(3.9185 -0.494121 0)
(3.95771 -0.689996 0)
(3.93444 -0.9981 0)
(3.92365 -1.32151 0)
(3.95318 -1.64702 0)
(4.041 -2.05662 0)
(4.20678 -2.62439 0)
(4.46442 -3.25839 0)
(0.40846 0.000224122 0)
(1.30641 -0.0036077 0)
(2.15403 -0.0293385 0)
(2.72935 -0.0914251 0)
(2.94874 -0.169783 0)
(2.98924 -0.220376 0)
(2.9368 -0.263018 0)
(2.7311 -0.349066 0)
(2.4493 -0.449933 0)
(2.15968 -0.539013 0)
(1.87109 -0.628209 0)
(1.59482 -0.705081 0)
(1.3765 -0.722765 0)
(1.21879 -0.673555 0)
(1.11837 -0.637411 0)
(1.0453 -0.723912 0)
(1.08726 -0.839995 0)
(1.24033 -0.870776 0)
(1.37528 -0.8587 0)
(1.46696 -0.853257 0)
(1.51807 -0.858315 0)
(1.57045 -0.85435 0)
(1.62647 -0.877123 0)
(1.67792 -0.947775 0)
(1.72792 -1.0806 0)
(1.78001 -1.27899 0)
(1.90425 -1.40919 0)
(2.07823 -1.42014 0)
(2.25042 -1.38491 0)
(2.44257 -1.28654 0)
(2.69375 -1.08153 0)
(2.98319 -0.842131 0)
(3.24508 -0.639921 0)
(3.46086 -0.498199 0)
(3.64865 -0.467104 0)
(3.81795 -0.499037 0)
(3.96876 -0.498185 0)
(4.05694 -0.565032 0)
(4.06285 -0.791061 0)
(4.05256 -1.10501 0)
(4.08619 -1.42931 0)
(4.16675 -1.75032 0)
(4.29617 -2.1403 0)
(4.49647 -2.67213 0)
(0.407429 -8.4053e-05 0)
(1.30981 0.000900277 0)
(2.20182 -0.00938788 0)
(2.889 -0.0562077 0)
(3.201 -0.149254 0)
(3.22456 -0.23853 0)
(3.16512 -0.283064 0)
(3.0129 -0.337146 0)
(2.73422 -0.437537 0)
(2.41224 -0.539031 0)
(2.10039 -0.623124 0)
(1.81102 -0.709428 0)
(1.5854 -0.782662 0)
(1.44355 -0.80643 0)
(1.38158 -0.768119 0)
(1.35445 -0.753752 0)
(1.34801 -0.846369 0)
(1.45854 -0.942761 0)
(1.62807 -0.977299 0)
(1.77831 -0.990282 0)
(1.88143 -1.01551 0)
(1.91442 -1.03839 0)
(1.93649 -1.02862 0)
(1.94877 -1.04086 0)
(1.96629 -1.09312 0)
(1.98131 -1.21455 0)
(2.03978 -1.38449 0)
(2.18065 -1.48457 0)
(2.3586 -1.49129 0)
(2.54407 -1.45935 0)
(2.76021 -1.34958 0)
(3.0308 -1.12195 0)
(3.30466 -0.881128 0)
(3.52635 -0.691777 0)
(3.71394 -0.552777 0)
(3.88424 -0.525 0)
(4.03323 -0.557627 0)
(4.13745 -0.565259 0)
(4.18353 -0.658158 0)
(4.19896 -0.904431 0)
(4.24223 -1.2267 0)
(4.33407 -1.55748 0)
(4.45476 -1.87528 0)
(4.61073 -2.24101 0)
(0.410103 -0.000390222 0)
(1.29386 0.00163763 0)
(2.19091 0.00575825 0)
(2.93592 -0.0127644 0)
(3.38084 -0.0862269 0)
(3.4559 -0.209199 0)
(3.37127 -0.300002 0)
(3.25319 -0.344854 0)
(3.03817 -0.419032 0)
(2.72492 -0.535903 0)
(2.38323 -0.640249 0)
(2.06247 -0.719523 0)
(1.79701 -0.795642 0)
(1.63995 -0.858724 0)
(1.58284 -0.885537 0)
(1.61043 -0.8593 0)
(1.63453 -0.870594 0)
(1.6839 -0.959588 0)
(1.82756 -1.03901 0)
(2.00033 -1.07789 0)
(2.17053 -1.11275 0)
(2.27284 -1.17932 0)
(2.29185 -1.22582 0)
(2.27345 -1.21871 0)
(2.24863 -1.21769 0)
(2.24293 -1.2556 0)
(2.24948 -1.36214 0)
(2.32187 -1.49655 0)
(2.47142 -1.57034 0)
(2.65637 -1.57198 0)
(2.85906 -1.5387 0)
(3.10236 -1.41383 0)
(3.38113 -1.17644 0)
(3.62781 -0.951976 0)
(3.81278 -0.778438 0)
(3.97675 -0.636934 0)
(4.12427 -0.609643 0)
(4.23145 -0.640285 0)
(4.29033 -0.654116 0)
(4.33412 -0.766106 0)
(4.40232 -1.02661 0)
(4.51251 -1.35823 0)
(4.64824 -1.70013 0)
(4.79469 -2.01364 0)
(4.96375 -2.35345 0)
(0.412723 -0.000261345 0)
(1.27525 0.00158762 0)
(2.14642 0.011485 0)
(2.89382 0.0174644 0)
(3.42359 -0.00992101 0)
(3.61767 -0.117679 0)
(3.54016 -0.260274 0)
(3.4112 -0.347021 0)
(3.26337 -0.400395 0)
(3.02569 -0.500508 0)
(2.70971 -0.639298 0)
(2.37328 -0.751821 0)
(2.065 -0.827878 0)
(1.85405 -0.885807 0)
(1.77166 -0.935948 0)
(1.80002 -0.961067 0)
(1.88958 -0.952187 0)
(1.9457 -0.986308 0)
(2.02864 -1.06563 0)
(2.17095 -1.12986 0)
(2.34883 -1.16456 0)
(2.53364 -1.22251 0)
(2.62907 -1.33723 0)
(2.63112 -1.4156 0)
(2.57428 -1.41811 0)
(2.53318 -1.4022 0)
(2.51932 -1.43119 0)
(2.53697 -1.51904 0)
(2.6281 -1.62006 0)
(2.78805 -1.67106 0)
(2.97814 -1.66596 0)
(3.19697 -1.62167 0)
(3.46211 -1.48213 0)
(3.73645 -1.25106 0)
(3.95095 -1.05642 0)
(4.10459 -0.895741 0)
(4.23882 -0.747745 0)
(4.34378 -0.714484 0)
(4.41066 -0.7414 0)
(4.46616 -0.761484 0)
(4.54694 -0.885799 0)
(4.6798 -1.15111 0)
(4.83868 -1.49343 0)
(4.99998 -1.84718 0)
(5.1641 -2.15606 0)
(0.404316 0.000876591 0)
(1.26005 0.00333942 0)
(2.10181 0.00954197 0)
(2.83041 0.0256557 0)
(3.36444 0.0341096 0)
(3.67028 -0.0083458 0)
(3.65884 -0.149579 0)
(3.50694 -0.296755 0)
(3.36355 -0.377801 0)
(3.20852 -0.443934 0)
(2.979 -0.573374 0)
(2.68953 -0.739922 0)
(2.38484 -0.867836 0)
(2.12068 -0.940761 0)
(1.98519 -0.976818 0)
(1.97754 -1.01235 0)
(2.07974 -1.03467 0)
(2.19941 -1.04982 0)
(2.27464 -1.10061 0)
(2.3609 -1.17016 0)
(2.485 -1.21505 0)
(2.6721 -1.23507 0)
(2.85796 -1.31943 0)
(2.9426 -1.48541 0)
(2.92073 -1.60537 0)
(2.85292 -1.61836 0)
(2.81629 -1.59288 0)
(2.80653 -1.61569 0)
(2.8451 -1.68263 0)
(2.96234 -1.75483 0)
(3.1328 -1.79069 0)
(3.32539 -1.7752 0)
(3.55939 -1.71112 0)
(3.83405 -1.56113 0)
(4.08967 -1.35028 0)
(4.26986 -1.19017 0)
(4.39093 -1.0398 0)
(4.48239 -0.879622 0)
(4.54709 -0.83818 0)
(4.61264 -0.861373 0)
(4.70022 -0.886164 0)
(4.82949 -1.01053 0)
(5.0077 -1.27305 0)
(5.19172 -1.62656 0)
(5.37004 -1.98991 0)
(5.54927 -2.29606 0)
(0.383591 0.00218735 0)
(1.23949 0.00795471 0)
(2.08283 0.00720481 0)
(2.79894 0.0149343 0)
(3.31992 0.0343548 0)
(3.65209 0.0442518 0)
(3.74807 -0.0218375 0)
(3.59823 -0.184517 0)
(3.40848 -0.32388 0)
(3.25797 -0.396128 0)
(3.10884 -0.47401 0)
(2.90667 -0.633036 0)
(2.66767 -0.829925 0)
(2.4186 -0.979399 0)
(2.23145 -1.04774 0)
(2.17577 -1.06391 0)
(2.24144 -1.08281 0)
(2.3933 -1.10789 0)
(2.52434 -1.15104 0)
(2.60378 -1.21611 0)
(2.66905 -1.27816 0)
(2.78117 -1.29429 0)
(2.97423 -1.29513 0)
(3.14386 -1.40783 0)
(3.20899 -1.62688 0)
(3.17633 -1.79123 0)
(3.12993 -1.81507 0)
(3.10647 -1.7906 0)
(3.10881 -1.80638 0)
(3.17629 -1.8497 0)
(3.32112 -1.89969 0)
(3.49877 -1.92889 0)
(3.69959 -1.89811 0)
(3.9446 -1.81182 0)
(4.20926 -1.65893 0)
(4.43253 -1.47442 0)
(4.5737 -1.34845 0)
(4.65551 -1.19973 0)
(4.71401 -1.02886 0)
(4.77553 -0.981636 0)
(4.86997 -0.998946 0)
(4.9974 -1.02098 0)
(5.16233 -1.13588 0)
(5.36141 -1.3931 0)
(5.5577 -1.75495 0)
(5.75016 -2.12445 0)
(5.94572 -2.42955 0)
(0.359666 0.00262534 0)
(1.20871 0.0112237 0)
(2.0852 0.0116178 0)
(2.8131 0.00215251 0)
(3.34649 0.00858513 0)
(3.66938 0.0282008 0)
(3.83157 0.0333296 0)
(3.75471 -0.0616724 0)
(3.52105 -0.231859 0)
(3.29758 -0.355034 0)
(3.1348 -0.411992 0)
(2.99318 -0.495598 0)
(2.82864 -0.678579 0)
(2.65152 -0.905071 0)
(2.47805 -1.07661 0)
(2.38558 -1.14017 0)
(2.40608 -1.14015 0)
(2.53631 -1.1429 0)
(2.71463 -1.18004 0)
(2.85059 -1.25264 0)
(2.9152 -1.33676 0)
(2.95576 -1.39053 0)
(3.07407 -1.36844 0)
(3.25976 -1.35444 0)
(3.39786 -1.49821 0)
(3.44148 -1.76708 0)
(3.42589 -1.96803 0)
(3.41052 -2.00831 0)