/*--------------------------------*- C++ -*----------------------------------*\
| =========                 |                                                 |
| \\      /  F ield         | OpenFOAM: The Open Source CFD Toolbox           |
|  \\    /   O peration     | Version:  5.x                                   |
|   \\  /    A nd           | Web:      www.OpenFOAM.org                      |
|    \\/     M anipulation  |                                                 |
\*---------------------------------------------------------------------------*/
FoamFile
{
    version     2.0;
    format      ascii;
    class       volVectorField;
    location    "0.2";
    object      Urom;
}
// * * * * * * * * * * * * * * * * * * * * * * * * * * * * * * * * * * * * * //

dimensions      [0 1 -1 0 0 0 0];

internalField   nonuniform List<vector> 
17568
(
(17.2724 0.614881 0)
(13.1877 0.558485 0)
(20.2333 1.08262 0)
(9.51471 0.282802 0)
(20.154 1.35755 0)
(20.1095 0.789763 0)
(6.89597 0.098926 0)
(18.9722 1.11462 0)
(20.9091 1.21403 0)
(20.0422 0.607004 0)
(5.47411 0.00742707 0)
(17.2271 0.80668 0)
(21.2593 1.14444 0)
(20.6989 1.0541 0)
(20.0314 0.482218 0)
(4.73793 -0.020036 0)
(15.551 0.51249 0)
(20.9943 0.970033 0)
(21.3109 1.05483 0)
(20.5244 0.93058 0)
(20.0234 0.385016 0)
(4.30667 -0.0161164 0)
(14.1424 0.304418 0)
(20.3718 0.759841 0)
(21.6026 0.949878 0)
(21.0677 0.969094 0)
(20.4044 0.81262 0)
(20.017 0.308884 0)
(4.01624 -0.00756983 0)
(13.0003 0.189645 0)
(19.6105 0.580842 0)
(21.6159 0.811849 0)
(21.4299 0.888867 0)
(20.8653 0.882817 0)
(20.3123 0.702648 0)
(20.0125 0.25002 0)
(3.79171 -0.00166921 0)
(12.0866 0.133024 0)
(18.8219 0.455618 0)
(21.4506 0.679721 0)
(21.6152 0.784141 0)
(21.2012 0.821438 0)
(20.703 0.79879 0)
(20.2415 0.604441 0)
(20.0094 0.204604 0)
(3.60108 0.00120882 0)
(11.3505 0.104188 0)
(18.0624 0.371492 0)
(21.1805 0.578653 0)
(21.6825 0.68164 0)
(21.3994 0.736934 0)
(21.0094 0.757997 0)
(20.5695 0.719641 0)
(20.1878 0.518551 0)
(20.0073 0.16931 0)
(3.43385 0.00214296 0)
(10.7442 0.087029 0)
(17.3538 0.311243 0)
(20.8536 0.505652 0)
(21.6752 0.600833 0)
(21.5122 0.654012 0)
(21.1985 0.690171 0)
(20.8479 0.69994 0)
(20.4608 0.645476 0)
(20.1471 0.444423 0)
(20.0057 0.141547 0)
(3.28718 0.00217954 0)
(10.2324 0.0747139 0)
(16.7002 0.264927 0)
(20.4962 0.449551 0)
(21.6203 0.542439 0)
(21.5782 0.586449 0)
(21.3122 0.622782 0)
(21.0282 0.646663 0)
(20.7106 0.645495 0)
(20.373 0.57629 0)
(20.1161 0.38108 0)
(20.0045 0.119393 0)
(3.15919 0.00195085 0)
(9.79258 0.0647268 0)
(16.0998 0.227896 0)
(20.1217 0.402953 0)
(21.5319 0.498002 0)
(21.618 0.536945 0)
(21.3885 0.565252 0)
(21.1388 0.592076 0)
(20.8822 0.60526 0)
(20.5946 0.593448 0)
(20.3024 0.512383 0)
(20.0926 0.327282 0)
(20.0036 0.101454 0)
(3.0474 0.00170535 0)
(9.41001 0.0563313 0)
(15.5496 0.197655 0)
(19.7382 0.362592 0)
(21.4155 0.460733 0)
(21.6404 0.499813 0)
(21.4472 0.521068 0)
(21.2146 0.543361 0)
(20.9901 0.56127 0)
(20.7563 0.565373 0)
(20.4969 0.543491 0)
(20.2459 0.454004 0)
(20.0744 0.281744 0)
(20.0029 0.0867276 0)
(2.94927 0.00149275 0)
(9.07429 0.0493067 0)
(15.0467 0.172667 0)
(19.3523 0.327027 0)
(21.2742 0.42752 0)
(21.6474 0.469205 0)
(21.4968 0.487355 0)
(21.2749 0.503658 0)
(21.0648 0.520621 0)
(20.8616 0.530418 0)
(20.6478 0.526914 0)
(20.415 0.495687 0)
(20.2007 0.401249 0)
(20.0603 0.243234 0)
(20.0024 0.0744997 0)
(2.86256 0.00130527 0)
(8.77749 0.0434552 0)
(14.5876 0.1519 0)
(18.97 0.295499 0)
(21.1114 0.397169 0)
(21.6384 0.442117 0)
(21.5395 0.459747 0)
(21.3276 0.472193 0)
(21.1245 0.485552 0)
(20.9353 0.497067 0)
(20.7502 0.499935 0)
(20.5543 0.48977 0)
(20.3466 0.450248 0)
(20.1645 0.354035 0)
(20.0492 0.210609 0)
(20.002 0.0642513 0)
(2.78552 0.00113013 0)
(8.51332 0.0385406 0)
(14.169 0.134534 0)
(18.596 0.267534 0)
(20.9313 0.369156 0)
(21.6136 0.417357 0)
(21.575 0.435603 0)
(21.3757 0.446159 0)
(21.1769 0.456442 0)
(20.9944 0.466779 0)
(20.8226 0.473039 0)
(20.6531 0.47003 0)
(20.4739 0.453818 0)
(20.2897 0.407412 0)
(20.1355 0.312087 0)
(20.0405 0.182864 0)
(20.0016 0.0555934 0)
(2.71685 0.000964807 0)
(8.27694 0.0343411 0)
(13.7867 0.119868 0)
(18.2338 0.242726 0)
(20.7379 0.343223 0)
(21.5736 0.394379 0)
(21.6028 0.413802 0)
(21.4198 0.423411 0)
(21.2245 0.431852 0)
(21.0461 0.440329 0)
(20.8809 0.447443 0)
(20.7244 0.448767 0)
(20.5686 0.440746 0)
(20.4049 0.419005 0)
(20.2426 0.367376 0)
(20.1121 0.275 0)
(20.0335 0.159149 0)
(20.0013 0.0482278 0)
(2.65555 0.000814196 0)
(8.06454 0.0306841 0)
(13.4375 0.107323 0)
(17.8854 0.220673 0)
(20.535 0.3192 0)
(21.5198 0.372859 0)
(21.623 0.393795 0)
(21.4599 0.402941 0)
(21.2684 0.410205 0)
(21.0929 0.41733 0)
(20.9321 0.423853 0)
(20.7818 0.427577 0)
(20.6383 0.424414 0)
(20.4947 0.412076 0)
(20.3458 0.385373 0)
(20.2037 0.33026 0)
(20.0932 0.242291 0)
(20.0277 0.138772 0)
(20.0011 0.0419218 0)
(2.60086 0.000666563 0)
(7.87318 0.0274498 0)
(13.118 0.0964379 0)
(17.5522 0.200981 0)
(20.3259 0.296909 0)
(21.4537 0.352588 0)
(21.6355 0.375208 0)
(21.4963 0.384254 0)
(21.3093 0.390618 0)
(21.1358 0.39682 0)
(20.9782 0.402581 0)
(20.8322 0.406939 0)
(20.6946 0.407238 0)
(20.5626 0.400126 0)
(20.4302 0.384015 0)
(20.2954 0.353036 0)
(20.1713 0.296098 0)
(20.0779 0.213461 0)
(20.0233 0.121173 0)
(20.0009 0.0364904 0)
(2.55223 0.000524305 0)
(7.70046 0.0245307 0)
(12.8256 0.0868549 0)
(17.2352 0.183285 0)
(20.1132 0.276171 0)
(21.3767 0.333392 0)
(21.6407 0.357763 0)
(21.5294 0.367 0)
(21.3477 0.372666 0)
(21.1756 0.378092 0)
(21.0203 0.383269 0)
(20.8778 0.387513 0)
(20.7442 0.389541 0)
(20.6179 0.386537 0)
(20.496 0.376017 0)
(20.374 0.356581 0)
(20.2525 0.322137 0)
(20.1446 0.264833 0)
(20.0654 0.188027 0)
(20.0195 0.105893 0)
(20.0008 0.0317855 0)
(2.50918 0.000334655 0)
(7.54461 0.021862 0)
(12.5575 0.0782952 0)
(16.9347 0.16728 0)
(19.8994 0.256799 0)
(21.2904 0.315119 0)
(21.6387 0.341236 0)
(21.5592 0.3509 0)
(21.3841 0.356054 0)
(21.213 0.360782 0)
(21.0592 0.365442 0)
(20.9192 0.36946 0)
(20.7893 0.37206 0)
(20.6665 0.371676 0)
(20.5499 0.36561 0)
(20.4373 0.352171 0)
(20.3251 0.329822 0)
(20.2161 0.292808 0)
(20.1223 0.236341 0)
(20.0552 0.165553 0)
(20.0164 0.0925594 0)
(20.0007 0.027686 0)
(2.47154 0.000198637 0)
(7.40405 0.0193548 0)
(12.3121 0.0705317 0)
(16.6507 0.152672 0)
(19.6866 0.23863 0)
(21.1963 0.297617 0)
(21.6299 0.325439 0)
(21.5857 0.335714 0)
(21.4188 0.340537 0)
(21.2488 0.344653 0)
(21.0957 0.3488 0)
(20.9574 0.352575 0)
(20.8301 0.35533 0)
(20.7107 0.356198 0)
(20.5975 0.353398 0)
(20.4897 0.34458 0)
(20.3854 0.328646 0)
(20.2825 0.30381 0)
(20.1852 0.265142 0)
(20.104 0.210447 0)
(20.0467 0.145648 0)
(20.0139 0.0808665 0)
(20.0006 0.0240937 0)
(2.43896 3.03805e-05 0)
(7.27796 0.0169275 0)
(12.0872 0.06341 0)
(16.3832 0.139238 0)
(19.4764 0.221485 0)
(21.0955 0.280772 0)
(21.6149 0.310196 0)
(21.6091 0.321249 0)
(21.4521 0.325898 0)
(21.2833 0.329504 0)
(21.1304 0.333157 0)
(20.993 0.336644 0)
(20.8677 0.339427 0)
(20.7511 0.340851 0)
(20.6409 0.339927 0)
(20.5361 0.334785 0)
(20.4362 0.323552 0)
(20.3396 0.30549 0)
(20.2455 0.278633 0)
(20.1591 0.239187 0)
(20.0887 0.186952 0)
(20.0397 0.127966 0)
(20.0119 0.0705601 0)
(20.0005 0.0209274 0)
(2.41179 -0.000187986 0)
(7.165 0.0146179 0)
(11.8819 0.0566958 0)
(16.1319 0.126714 0)
(19.2704 0.205235 0)
(20.9898 0.26444 0)
(21.5939 0.295367 0)
(21.6294 0.307312 0)
(21.4842 0.311954 0)
(21.3169 0.315145 0)
(21.1639 0.318354 0)
(21.027 0.321522 0)
(20.9028 0.324244 0)
(20.7882 0.32596 0)
(20.6808 0.326002 0)
(20.5786 0.323261 0)
(20.4813 0.315923 0)
(20.3886 0.302616 0)
(20.2993 0.282756 0)
(20.2137 0.254384 0)
(20.1369 0.214945 0)
(20.0759 0.165638 0)
(20.034 0.112201 0)
(20.0102 0.061429 0)
(20.0004 0.0181203 0)
(2.38954 -0.000397161 0)
(7.06561 0.0122559 0)
(11.6944 0.0502944 0)
(15.8968 0.114963 0)
(19.0695 0.189673 0)
(20.8803 0.248543 0)
(21.5676 0.2808 0)
(21.6466 0.29375 0)
(21.5151 0.298524 0)
(21.3498 0.301414 0)
(21.1966 0.304233 0)
(21.0596 0.307088 0)
(20.9361 0.309677 0)
(20.8229 0.311551 0)
(20.7175 0.31215 0)
(20.6178 0.310778 0)
(20.5228 0.306235 0)
(20.4323 0.296901 0)
(20.3462 0.281839 0)
(20.2638 0.260502 0)
(20.1862 0.231141 0)
(20.1182 0.192377 0)
(20.0652 0.146289 0)
(20.0292 0.0980941 0)
(20.0088 0.0532959 0)
(20.0004 0.0156161 0)
(2.37348 -0.000680926 0)
(6.97809 0.00983592 0)
(11.5252 0.0440555 0)
(15.6772 0.103686 0)
(18.8753 0.174719 0)
(20.7682 0.232903 0)
(21.5364 0.266395 0)
(21.661 0.28039 0)
(21.5451 0.285454 0)
(21.3822 0.288147 0)
(21.2287 0.290651 0)
(21.0915 0.293218 0)
(20.9681 0.295641 0)
(20.8557 0.297569 0)
(20.7517 0.298534 0)
(20.6542 0.297981 0)
(20.5614 0.295181 0)
(20.4727 0.288903 0)
(20.3886 0.277804 0)
(20.3086 0.261284 0)
(20.2326 0.238793 0)
(20.1624 0.208962 0)
(20.1024 0.171413 0)
(20.0563 0.128696 0)
(20.0252 0.0854165 0)
(20.0076 0.0460115 0)
(20.0003 0.0133682 0)
(2.36241 -0.000946503 0)
(6.90499 0.00720906 0)
(11.3719 0.0378127 0)
(15.4741 0.0927689 0)
(18.688 0.160065 0)
(20.6549 0.217494 0)
(21.501 0.25198 0)
(21.6726 0.267112 0)
(21.574 0.272577 0)
(21.4144 0.275198 0)
(21.2605 0.277458 0)
(21.1228 0.279787 0)
(20.9993 0.282043 0)
(20.8873 0.283957 0)
(20.7841 0.285155 0)
(20.688 0.285167 0)
(20.5971 0.283449 0)
(20.5104 0.27923 0)
(20.4278 0.271329 0)
(20.3493 0.25871 0)
(20.275 0.241006 0)
(20.2053 0.217693 0)
(20.1421 0.187877 0)
(20.089 0.15196 0)
(20.0488 0.112664 0)
(20.0218 0.0739718 0)
(20.0066 0.0394491 0)
(20.0003 0.0113373 0)
(2.36005 -0.00143163 0)
(6.84249 0.00441892 0)
(11.2373 0.0314097 0)
(15.2856 0.0818893 0)
(18.5096 0.14574 0)
(20.5414 0.201967 0)
(21.4622 0.237497 0)
(21.6817 0.253738 0)
(21.6021 0.259756 0)
(21.4466 0.262407 0)
(21.2923 0.264518 0)
(21.1538 0.266664 0)
(21.03 0.26878 0)
(20.918 0.27065 0)
(20.8153 0.271989 0)
(20.72 0.272407 0)
(20.6305 0.271442 0)
(20.5457 0.268557 0)
(20.4645 0.262957 0)
(20.3872 0.253577 0)
(20.3141 0.239685 0)
(20.2452 0.221055 0)
(20.1814 0.197259 0)
(20.1246 0.167892 0)
(20.0777 0.133911 0)
(20.0425 0.0980113 0)
(20.0191 0.0635891 0)
(20.0058 0.0335007 0)
(20.0002 0.00948926 0)
(2.36257 -0.00179726 0)
(6.79882 0.00109715 0)
(11.1165 0.0245715 0)
(15.1149 0.0710158 0)
(18.3396 0.131226 0)
(20.4292 0.186512 0)
(21.4207 0.22267 0)
(21.6885 0.240149 0)
(21.6293 0.246815 0)
(21.4787 0.249636 0)
(21.324 0.251682 0)
(21.1845 0.25372 0)
(21.0601 0.255739 0)
(20.948 0.257573 0)
(20.8455 0.258996 0)
(20.7507 0.259704 0)
(20.6623 0.259308 0)
(20.5787 0.257357 0)
(20.499 0.253319 0)
(20.423 0.246405 0)
(20.3507 0.235718 0)
(20.2826 0.220786 0)
(20.2189 0.201483 0)
(20.1605 0.177533 0)
(20.1095 0.148986 0)
(20.0681 0.117152 0)
(20.0372 0.0845754 0)
(20.0168 0.0541191 0)
(20.0051 0.0280735 0)
(20.0002 0.00779225 0)
(2.38013 -0.00274653 0)
(6.7631 -0.0025241 0)
(11.019 0.0171608 0)
(14.9575 0.0594695 0)
(18.1805 0.11662 0)
(20.3187 0.170507 0)
(21.3773 0.207516 0)
(21.6932 0.226162 0)
(21.6559 0.233611 0)
(21.5108 0.23671 0)
(21.3561 0.238809 0)
(21.2156 0.240816 0)
(21.0903 0.242799 0)
(20.9776 0.244628 0)
(20.8751 0.246121 0)
(20.7806 0.247044 0)
(20.6927 0.247082 0)
(20.61 0.24585 0)
(20.5317 0.242919 0)
(20.4569 0.237757 0)
(20.3855 0.229622 0)
(20.3179 0.217813 0)
(20.2545 0.202066 0)
(20.1956 0.182335 0)
(20.1425 0.158545 0)
(20.0966 0.131123 0)
(20.06 0.101567 0)
(20.0329 0.0722037 0)
(20.0148 0.045432 0)
(20.0046 0.0230778 0)
(20.0002 0.0062281 0)
(2.40124 -0.00330778 0)
(6.75815 -0.00754385 0)
(10.931 0.00878188 0)
(14.8218 0.0474221 0)
(18.0306 0.101111 0)
(20.2121 0.154057 0)
(21.3324 0.191571 0)
(21.6964 0.21157 0)
(21.682 0.219945 0)
(21.5433 0.223486 0)
(21.3886 0.225734 0)
(21.2468 0.227807 0)
(21.1204 0.229829 0)
(21.0071 0.231706 0)
(20.9043 0.233288 0)
(20.8098 0.23439 0)
(20.7221 0.234769 0)
(20.6401 0.234108 0)
(20.5625 0.232034 0)
(20.4889 0.228138 0)
(20.4184 0.221902 0)
(20.3514 0.212661 0)
(20.2883 0.19992 0)
(20.2293 0.18357 0)
(20.1751 0.163653 0)
(20.1267 0.140309 0)
(20.0857 0.114249 0)
(20.053 0.0870375 0)
(20.0291 0.0607598 0)
(20.0132 0.0374 0)
(20.0041 0.0184633 0)
(20.0002 0.00477158 0)
(2.4528 -0.00537712 0)
(6.75354 -0.0127518 0)
(10.8789 -0.00123009 0)
(14.6966 0.0337455 0)
(17.8957 0.0849539 0)
(20.109 0.136395 0)
(21.2875 0.174825 0)
(21.6982 0.19607 0)
(21.7078 0.205588 0)
(21.5762 0.209731 0)
(21.4217 0.212295 0)
(21.2785 0.214539 0)
(21.1509 0.21669 0)
(21.0366 0.218682 0)
(20.9332 0.220397 0)
(20.8385 0.221683 0)
(20.751 0.222353 0)
(20.6693 0.222158 0)
(20.5923 0.220779 0)
(20.5194 0.217867 0)
(20.4499 0.213035 0)
(20.3837 0.205789 0)
(20.3207 0.195577 0)
(20.2617 0.182088 0)
(20.207 0.165338 0)
(20.157 0.145467 0)
(20.113 0.122818 0)
(20.0762 0.0982965 0)
(20.0472 0.0734512 0)
(20.026 0.050105 0)
(20.0118 0.0299459 0)
(20.0037 0.0141548 0)
(20.0002 0.00339722 0)
(2.50667 -0.00632551 0)
(6.80876 -0.0225656 0)
(10.8258 -0.0128279 0)
(14.6032 0.0184222 0)
(17.7694 0.0667032 0)
(20.0131 0.117669 0)
(21.2428 0.156597 0)
(21.6995 0.179526 0)
(21.7335 0.190264 0)
(21.6097 0.195239 0)
(21.4556 0.198272 0)
(21.3109 0.200834 0)
(21.1817 0.203224 0)
(21.0664 0.205422 0)
(20.9621 0.207334 0)
(20.8671 0.20884 0)
(20.7794 0.209791 0)
(20.6977 0.209994 0)
(20.6211 0.209198 0)
(20.5487 0.207097 0)
(20.4799 0.203363 0)
(20.4144 0.197633 0)
(20.3519 0.189459 0)
(20.2929 0.17842 0)
(20.2378 0.164365 0)
(20.187 0.147407 0)
(20.1412 0.127798 0)
(20.1012 0.106052 0)
(20.0681 0.0831936 0)
(20.0422 0.0606848 0)
(20.0234 0.0401484 0)
(20.0108 0.0229591 0)
(20.0034 0.0100839 0)
(20.0001 0.00209231 0)
(2.61327 -0.0134237 0)
(6.8474 -0.029037 0)
(10.8398 -0.0298083 0)
(14.5126 0.000129794 0)
(17.6652 0.0464811 0)
(19.9218 0.0965433 0)
(21.2005 0.136804 0)
(21.7005 0.161346 0)
(21.7594 0.173733 0)
(21.6441 0.17973 0)
(21.4904 0.183445 0)
(21.3441 0.186488 0)
(21.2132 0.189254 0)
(21.0965 0.191769 0)
(20.9914 0.193964 0)
(20.8956 0.195752 0)
(20.8076 0.19701 0)
(20.7258 0.197591 0)
(20.6493 0.197301 0)
(20.5772 0.19589 0)
(20.5089 0.193069 0)
(20.4438 0.188537 0)
(20.3819 0.18196 0)
(20.3232 0.172955 0)
(20.2678 0.161237 0)
(20.2164 0.146785 0)
(20.1693 0.129804 0)
(20.1273 0.110649 0)
(20.0911 0.0899764 0)
(20.0613 0.0688486 0)
(20.0381 0.0486499 0)
(20.0211 0.0307632 0)
(20.0098 0.0163397 0)
(20.0031 0.0062155 0)
(20.0001 0.000833816 0)
(2.80405 -0.00766405 0)
(7.00511 -0.0594348 0)
(10.8273 -0.0472062 0)
(14.4772 -0.0238139 0)
(17.567 0.0224715 0)
(19.843 0.0727381 0)
(21.1599 0.114387 0)
(21.7023 0.1412 0)
(21.786 0.155481 0)
(21.6795 0.162879 0)
(21.5265 0.167529 0)
(21.3784 0.171257 0)
(21.2456 0.174577 0)
(21.1273 0.177546 0)
(21.0208 0.180138 0)
(20.9242 0.182289 0)
(20.8356 0.183913 0)
(20.7535 0.184891 0)
(20.677 0.185075 0)
(20.605 0.184271 0)
(20.5369 0.182238 0)
(20.4724 0.178709 0)
(20.4109 0.173412 0)
(20.3524 0.166051 0)
(20.2969 0.156322 0)
(20.2451 0.14407 0)
(20.1971 0.129384 0)
(20.1537 0.112546 0)
(20.1152 0.0940155 0)
(20.0823 0.0745355 0)
(20.0555 0.0551907 0)
(20.0346 0.0372223 0)
(20.0194 0.0218343 0)
(20.0091 0.0100297 0)
(20.0029 0.00247701 0)
(20.0001 -0.000399793 0)
(2.76271 -0.120023 0)
(7.14481 -0.0554214 0)
(10.951 -0.0876117 0)
(14.4276 -0.0514343 0)
(17.5054 -0.00797292 0)
(19.7694 0.0447508 0)
(21.125 0.0885594 0)
(21.7051 0.118258 0)
(21.8136 0.134985 0)
(21.7162 0.14424 0)
(21.564 0.15016 0)
(21.4138 0.154861 0)
(21.2788 0.158939 0)
(21.1586 0.162547 0)
(21.0509 0.165677 0)
(20.9531 0.168307 0)
(20.8637 0.170376 0)
(20.7813 0.171802 0)
(20.7043 0.172471 0)
(20.6324 0.172235 0)
(20.5644 0.170905 0)
(20.5 0.168251 0)
(20.4389 0.164033 0)
(20.3806 0.158013 0)
(20.3253 0.149939 0)
(20.2732 0.139599 0)
(20.2247 0.126952 0)
(20.1801 0.112182 0)
(20.1399 0.0956415 0)
(20.1047 0.0778704 0)
(20.0748 0.0596844 0)
(20.0506 0.0421126 0)
(20.0318 0.0262896 0)
(20.018 0.0132822 0)
(20.0085 0.00391851 0)
(20.0028 -0.00118883 0)
(20.0001 -0.00162939 0)
(7.44144 -0.223379 0)
(4.42437 -0.22618 0)
(11.0042 -0.119597 0)
(14.4797 -0.102561 0)
(17.4434 -0.0440415 0)
(19.7164 0.00927772 0)
(21.0936 0.058258 0)
(21.7106 0.0913727 0)
(21.8428 0.111586 0)
(21.7548 0.123165 0)
(21.6033 0.130921 0)
(21.4509 0.136913 0)
(21.3134 0.142055 0)
(21.191 0.146516 0)
(21.0815 0.150376 0)
(20.9824 0.153627 0)
(20.8921 0.156256 0)
(20.8089 0.158211 0)
(20.7316 0.159411 0)
(20.6594 0.159747 0)
(20.5913 0.159073 0)
(20.5271 0.157209 0)
(20.466 0.153941 0)
(20.4081 0.149062 0)
(20.3529 0.142368 0)
(20.3007 0.133662 0)
(20.2517 0.122824 0)
(20.2064 0.109916 0)
(20.1649 0.0951985 0)
(20.128 0.0790839 0)
(20.0957 0.0621929 0)
(20.0686 0.0453401 0)
(20.0465 0.0295164 0)
(20.0294 0.01576 0)
(20.0168 0.00497589 0)
(20.0081 -0.00207954 0)
(20.0027 -0.00484324 0)
(20.0001 -0.00284129 0)
(11.2925 -0.284672 0)
(7.89118 -0.385408 0)
(2.02894 0.39777 0)
(5.82281 -0.261588 0)
(14.4912 -0.157773 0)
(17.4421 -0.104216 0)
(19.6686 -0.0331639 0)
(21.0724 0.0196385 0)
(21.7191 0.0597406 0)
(21.8742 0.0838919 0)
(21.7955 0.0990795 0)
(21.6447 0.109117 0)
(21.4897 0.116998 0)
(21.3493 0.123531 0)
(21.2244 0.129164 0)
(21.113 0.133976 0)
(21.0125 0.138044 0)
(20.9209 0.141381 0)
(20.8368 0.143977 0)
(20.7589 0.145787 0)
(20.6861 0.146737 0)
(20.618 0.14672 0)
(20.5536 0.145595 0)
(20.4926 0.143195 0)
(20.4347 0.139329 0)
(20.3798 0.133821 0)
(20.3275 0.126508 0)
(20.2783 0.117255 0)
(20.2323 0.10603 0)
(20.19 0.0929872 0)
(20.1516 0.0784379 0)
(20.1175 0.0628688 0)
(20.088 0.0469214 0)
(20.0632 0.0314212 0)
(20.0433 0.0173097 0)
(20.0277 0.00549399 0)
(20.016 -0.00319029 0)
(20.0078 -0.00806379 0)
(20.0026 -0.00844613 0)
(20.0001 -0.00401565 0)
(14.6511 -0.319185 0)
(11.4644 -0.46204 0)
(8.61122 -0.502836 0)
(0.74986 0.982108 0)
(3.71502 0.137818 0)
(7.00005 -0.509055 0)
(17.4305 -0.175156 0)
(19.6522 -0.0993955 0)
(21.0565 -0.0270497 0)
(21.7324 0.0193113 0)
(21.9086 0.0511806 0)
(21.8388 0.070511 0)
(21.6884 0.0841606 0)
(21.5306 0.0944161 0)
(21.3869 0.102944 0)
(21.2593 0.110095 0)
(21.1455 0.116184 0)
(21.0431 0.121304 0)
(20.9501 0.125545 0)
(20.8648 0.128933 0)
(20.7861 0.131465 0)
(20.7129 0.133104 0)
(20.6443 0.133781 0)
(20.5798 0.133393 0)
(20.5187 0.131809 0)
(20.4609 0.128876 0)
(20.4058 0.124432 0)
(20.3537 0.118334 0)
(20.3044 0.110464 0)
(20.2581 0.100749 0)
(20.2149 0.0892461 0)
(20.1755 0.0761699 0)
(20.1399 0.0619006 0)
(20.1085 0.0469505 0)
(20.0815 0.0319943 0)
(20.059 0.0178451 0)
(20.0407 0.00535498 0)
(20.0264 -0.00462635 0)
(20.0155 -0.0113498 0)
(20.0078 -0.0139647 0)
(20.0027 -0.011938 0)
(20.0001 -0.0051697 0)
(17.4898 -0.33054 0)
(14.7368 -0.49581 0)
(11.7401 -0.642459 0)
(9.46681 -0.731814 0)
(0.344437 1.19351 0)
(2.2268 0.485495 0)
(4.94078 -0.244973 0)
(7.96897 -0.923693 0)
(19.6367 -0.180536 0)
(21.0547 -0.0962521 0)
(21.7501 -0.0300426 0)
(21.9464 0.00957804 0)
(21.8852 0.0366454 0)
(21.7348 0.0546234 0)
(21.5738 0.0685368 0)
(21.4263 0.0796097 0)
(21.2955 0.0888735 0)
(21.179 0.0966111 0)
(21.0746 0.103108 0)
(20.9799 0.108497 0)
(20.8934 0.112875 0)
(20.8137 0.116281 0)
(20.7398 0.118723 0)
(20.6706 0.120167 0)
(20.6058 0.120549 0)
(20.5445 0.119777 0)
(20.4866 0.117729 0)
(20.4315 0.114272 0)
(20.3793 0.109275 0)
(20.3299 0.10263 0)
(20.2832 0.0942624 0)
(20.2396 0.0841732 0)
(20.1993 0.0724823 0)
(20.1627 0.0594749 0)
(20.1298 0.0455592 0)
(20.1009 0.0312873 0)
(20.0762 0.0173426 0)
(20.0556 0.00448601 0)
(20.0388 -0.00646912 0)
(20.0255 -0.014755 0)
(20.0153 -0.0193964 0)
(20.0078 -0.0196818 0)
(20.0028 -0.0153678 0)
(20.0001 -0.00633216 0)
(19.6474 -0.327544 0)
(17.5092 -0.506574 0)
(14.8143 -0.696156 0)
(12.1964 -0.891566 0)
(10.256 -1.09646 0)
(0.184112 1.36058 0)
(1.30674 0.725001 0)
(3.27272 -0.00913504 0)
(5.90453 -0.737001 0)
(8.64658 -1.4444 0)
(21.0545 -0.182995 0)
(21.7736 -0.100132 0)
(21.9878 -0.0416157 0)
(21.9349 -0.00596345 0)
(21.7843 0.0195465 0)
(21.6196 0.0380288 0)
(21.4679 0.0528489 0)
(21.3334 0.0648416 0)
(21.214 0.07481 0)
(21.1071 0.0830794 0)
(21.0105 0.0899423 0)
(20.9225 0.0955588 0)
(20.8416 0.100037 0)
(20.7666 0.103432 0)
(20.6969 0.105755 0)
(20.6316 0.10698 0)
(20.57 0.107052 0)
(20.5118 0.105884 0)
(20.4567 0.103372 0)
(20.4044 0.0994046 0)
(20.3548 0.0938815 0)
(20.3081 0.0867331 0)
(20.2641 0.0779357 0)
(20.2232 0.0675451 0)
(20.1856 0.0557584 0)
(20.1515 0.0428887 0)
(20.1211 0.0293871 0)
(20.0946 0.0158247 0)
(20.072 0.00285686 0)
(20.0531 -0.00877336 0)
(20.0376 -0.018324 0)
(20.0253 -0.0247438 0)
(20.0155 -0.0271857 0)
(20.0081 -0.0252931 0)
(20.0029 -0.0188183 0)
(20.0002 -0.00752184 0)
(21.0579 -0.320848 0)
(19.6276 -0.500597 0)
(17.4922 -0.707538 0)
(14.9635 -0.96103 0)
(12.6826 -1.23069 0)
(10.815 -1.53895 0)
(0.0444352 1.42693 0)
(0.744651 0.880242 0)
(2.00387 0.17514 0)
(4.0466 -0.565565 0)
(6.59074 -1.33698 0)
(8.89556 -1.90858 0)
(21.7969 -0.189177 0)
(22.0319 -0.11163 0)
(21.9876 -0.0586048 0)
(21.837 -0.0240294 0)
(21.6682 0.00180246 0)
(21.5117 0.0214487 0)
(21.3731 0.0372945 0)
(21.2503 0.0501548 0)
(21.1407 0.0607657 0)
(21.0419 0.0695104 0)
(20.9521 0.0766933 0)
(20.8698 0.0824969 0)
(20.7939 0.0870444 0)
(20.7232 0.090395 0)
(20.6572 0.0925711 0)
(20.5953 0.0935563 0)
(20.5368 0.0933007 0)
(20.4815 0.0917294 0)
(20.4291 0.0887568 0)
(20.3794 0.0842943 0)
(20.3324 0.0782771 0)
(20.2882 0.0706721 0)
(20.2468 0.0615005 0)
(20.2085 0.050889 0)
(20.1735 0.0390661 0)
(20.1419 0.026394 0)
(20.114 0.0133416 0)
(20.0896 0.000468247 0)
(20.0689 -0.011571 0)
(20.0515 -0.0220927 0)
(20.0373 -0.0300161 0)
(20.0256 -0.0344046 0)
(20.016 -0.034823 0)
(20.0085 -0.0309263 0)
(20.0031 -0.022346 0)
(20.0002 -0.00875431 0)
(21.8143 -0.318293 0)
(21.0332 -0.487426 0)
(19.5651 -0.695672 0)
(17.4727 -0.96614 0)
(15.1225 -1.29316 0)
(13.0369 -1.61059 0)
(11.0066 -1.95217 0)
(-0.128109 1.40968 0)
(0.273612 0.959313 0)
(1.0974 0.264578 0)
(2.40874 -0.437349 0)
(4.61297 -1.21738 0)
(6.95694 -1.82306 0)
(9.2035 -2.19908 0)
(22.0743 -0.201002 0)
(22.042 -0.128275 0)
(21.8921 -0.0778346 0)
(21.7193 -0.0426434 0)
(21.5579 -0.0157638 0)
(21.4146 0.00512033 0)
(21.2881 0.0219321 0)
(21.1755 0.035573 0)
(21.0742 0.0467588 0)
(20.9825 0.0559212 0)
(20.8986 0.0633775 0)
(20.8213 0.0693284 0)
(20.7497 0.0739072 0)
(20.683 0.0771836 0)
(20.6204 0.0791884 0)
(20.5615 0.0799109 0)
(20.5059 0.0793133 0)
(20.4533 0.0773335 0)
(20.4034 0.0739053 0)
(20.3563 0.0689662 0)
(20.3119 0.0624857 0)
(20.2701 0.0544663 0)
(20.2313 0.0449843 0)
(20.1955 0.0342033 0)
(20.163 0.022399 0)
(20.1338 0.00995625 0)
(20.1081 -0.00265657 0)
(20.0858 -0.0148755 0)
(20.0669 -0.0260915 0)
(20.051 -0.0352313 0)
(20.0376 -0.0413127 0)
(20.0263 -0.0438599 0)
(20.0167 -0.0424683 0)
(20.0091 -0.0366726 0)
(20.0034 -0.0259959 0)
(20.0002 -0.0100535 0)
(22.1083 -0.322514 0)
(21.8055 -0.476421 0)
(20.9655 -0.674119 0)
(19.4725 -0.936786 0)
(17.4041 -1.28409 0)
(15.2127 -1.63904 0)
(13.138 -1.96219 0)
(11.0458 -2.26312 0)
(-0.314031 1.29466 0)
(-0.284703 0.933927 0)
(0.265897 0.216979 0)
(0.961012 -0.398076 0)
(2.71811 -1.08126 0)
(5.21877 -1.68122 0)
(7.5661 -2.0702 0)
(9.68338 -2.34185 0)
(22.094 -0.216908 0)
(21.9483 -0.14709 0)
(21.7724 -0.09727 0)
(21.606 -0.0609045 0)
(21.458 -0.0328689 0)
(21.3274 -0.0108723 0)
(21.2114 0.00679817 0)
(21.1075 0.0211217 0)
(21.0135 0.0328114 0)
(20.9278 0.0423324 0)
(20.8491 0.0500118 0)
(20.7764 0.0560681 0)
(20.7087 0.0606423 0)
(20.6455 0.063814 0)
(20.586 0.0656209 0)
(20.5301 0.0660608 0)
(20.4772 0.0651088 0)
(20.4271 0.0627174 0)
(20.3799 0.0588393 0)
(20.3352 0.0534449 0)
(20.2932 0.0465294 0)
(20.2539 0.038141 0)
(20.2175 0.0283909 0)
(20.1843 0.0174859 0)
(20.1541 0.00573191 0)
(20.1273 -0.00648616 0)
(20.1038 -0.0186873 0)
(20.0834 -0.0303448 0)
(20.0661 -0.0404168 0)
(20.0514 -0.0479098 0)
(20.0386 -0.0523425 0)
(20.0275 -0.0532892 0)
(20.0179 -0.0502364 0)
(20.0097 -0.0426035 0)
(20.0036 -0.0298368 0)
(20.0002 -0.0114396 0)
(22.1375 -0.332138 0)
(22.119 -0.471562 0)
(21.7575 -0.653218 0)
(20.8577 -0.896299 0)
(19.3076 -1.22766 0)
(17.2549 -1.60976 0)
(15.1608 -1.94153 0)
(13.002 -2.25876 0)
(11.2323 -2.4355 0)
(-0.46904 1.08193 0)
(-0.860934 0.791911 0)
(-0.689047 0.0500454 0)
(-0.459277 -0.48885 0)
(0.94136 -0.942168 0)
(3.64175 -1.46143 0)
(6.13016 -1.88063 0)
(8.28403 -2.19419 0)
(10.2186 -2.43214 0)
(22.0016 -0.234381 0)
(21.8255 -0.165994 0)
(21.6552 -0.115964 0)
(21.5027 -0.0784805 0)
(21.368 -0.0494166 0)
(21.2486 -0.0264849 0)
(21.1416 -0.00807327 0)
(21.0452 0.00683278 0)
(20.9575 0.0189524 0)
(20.8773 0.0287683 0)
(20.8032 0.0366218 0)
(20.7345 0.0427396 0)
(20.6704 0.0472707 0)
(20.6104 0.0503057 0)
(20.554 0.051888 0)
(20.5008 0.0520272 0)
(20.4505 0.0507085 0)
(20.4029 0.0479023 0)
(20.3581 0.0435854 0)
(20.3158 0.0377506 0)
(20.2762 0.0304328 0)
(20.2394 0.0217064 0)
(20.2055 0.0117231 0)
(20.1746 0.000722012 0)
(20.1468 -0.0109866 0)
(20.1223 -0.0229999 0)
(20.1009 -0.0348722 0)
(20.0825 -0.0456061 0)
(20.0666 -0.0542207 0)
(20.0527 -0.0602544 0)
(20.0404 -0.0632942 0)
(20.0293 -0.0628256 0)
(20.0193 -0.058224 0)
(20.0107 -0.0488233 0)
(20.004 -0.0339262 0)
(20.0002 -0.0129347 0)
(22.0464 -0.344327 0)
(22.1607 -0.472349 0)
(22.0954 -0.63821 0)
(21.6675 -0.857328 0)
(20.6797 -1.15696 0)
(19.036 -1.52805 0)
(17.0191 -1.88538 0)
(14.9249 -2.20084 0)
(12.8805 -2.46164 0)
(11.5236 -2.53106 0)
(-0.566483 0.798302 0)
(-1.29971 0.57316 0)
(-1.55859 -0.168895 0)
(-1.69368 -0.632581 0)
(-0.586736 -0.794122 0)
(2.1571 -1.14998 0)
(4.88268 -1.61784 0)
(7.07735 -1.99402 0)
(9.0439 -2.281 0)
(10.765 -2.49703 0)
(21.8755 -0.251514 0)
(21.7037 -0.183959 0)
(21.5477 -0.133597 0)
(21.4092 -0.0952553 0)
(21.2863 -0.0653608 0)
(21.1765 -0.0416741 0)
(21.0775 -0.0226479 0)
(20.9877 -0.00725886 0)
(20.9056 0.00521159 0)
(20.8302 0.0152593 0)
(20.7603 0.0232305 0)
(20.6954 0.0293643 0)
(20.6347 0.0338147 0)
(20.5777 0.0366797 0)
(20.5241 0.0380115 0)
(20.4734 0.037831 0)
(20.4256 0.036134 0)
(20.3805 0.0329121 0)
(20.338 0.0281611 0)
(20.2981 0.021908 0)
(20.261 0.0142061 0)
(20.2267 0.0051678 0)
(20.1952 -0.00502556 0)
(20.1668 -0.0161268 0)
(20.1414 -0.0278067 0)
(20.119 -0.039691 0)
(20.0997 -0.0508372 0)
(20.083 -0.0602888 0)
(20.0682 -0.0676206 0)
(20.0549 -0.0724543 0)
(20.0428 -0.074311 0)
(20.0315 -0.0725819 0)
(20.0211 -0.0665597 0)
(20.0119 -0.0554203 0)
(20.0045 -0.038327 0)
(20.0003 -0.0145629 0)
(21.9167 -0.35672 0)
(22.0736 -0.476337 0)
(22.1544 -0.629279 0)
(22.0331 -0.82596 0)
(21.5156 -1.08988 0)
(20.396 -1.42544 0)
(18.6673 -1.78647 0)
(16.6859 -2.1087 0)
(14.5722 -2.41277 0)
(12.8916 -2.5729 0)
(11.8221 -2.59088 0)
(-0.607677 0.474169 0)
(-1.53017 0.328218 0)
(-2.1021 -0.366236 0)
(-2.35834 -0.700658 0)
(-1.4312 -0.597977 0)
(0.824957 -0.736388 0)
(3.77545 -1.25555 0)
(6.13249 -1.72742 0)
(8.05685 -2.07627 0)
(9.82902 -2.34919 0)
(11.2731 -2.5345 0)
(21.7482 -0.267341 0)
(21.5912 -0.200596 0)
(21.45 -0.150087 0)
(21.3242 -0.111182 0)
(21.2115 -0.0806675 0)
(21.1101 -0.0564001 0)
(21.0181 -0.0368883 0)
(20.9343 -0.0211197 0)
(20.8573 -0.00837961 0)
(20.7862 0.00183196 0)
(20.7203 0.00986703 0)
(20.6587 0.0159671 0)
(20.6012 0.0202959 0)
(20.547 0.0229577 0)
(20.496 0.024014 0)
(20.4479 0.0234932 0)
(20.4025 0.0214095 0)
(20.3599 0.0177677 0)
(20.3197 0.012593 0)
(20.2823 0.00592897 0)
(20.2476 -0.00213937 0)
(20.2157 -0.0114743 0)
(20.1866 -0.0218836 0)
(20.1606 -0.033101 0)
(20.1376 -0.0448189 0)
(20.1175 -0.0561495 0)
(20.1001 -0.0661706 0)
(20.0848 -0.0744985 0)
(20.0709 -0.0808 0)
(20.0581 -0.0846538 0)
(20.046 -0.0855112 0)
(20.0344 -0.0826956 0)
(20.0234 -0.0753488 0)
(20.0133 -0.0624888 0)
(20.0052 -0.0431078 0)
(20.0003 -0.0163519 0)
(21.7839 -0.367997 0)
(21.9418 -0.481113 0)
(22.0748 -0.623995 0)
(22.1136 -0.802685 0)
(21.9178 -1.03416 0)
(21.2737 -1.32688 0)
(20.0028 -1.66076 0)
(18.2324 -1.98792 0)
(16.2161 -2.30061 0)
(14.2889 -2.54833 0)
(12.9476 -2.62855 0)
(12.084 -2.6085 0)
(-0.600075 0.138756 0)
(-1.57008 0.0942403 0)
(-2.28775 -0.502884 0)
(-2.42936 -0.63158 0)
(-1.47357 -0.336863 0)
(-0.0538563 -0.268842 0)
(2.73044 -0.776741 0)
(5.40085 -1.38395 0)
(7.30553 -1.81879 0)
(9.02285 -2.15213 0)
(10.5543 -2.41681 0)
(11.6126 -2.51247 0)
(21.63 -0.281524 0)
(21.4886 -0.215802 0)
(21.361 -0.165412 0)
(21.2461 -0.126225 0)
(21.1425 -0.0953059 0)
(21.0485 -0.0706265 0)
(20.9629 -0.0507592 0)
(20.8844 -0.0347158 0)
(20.812 -0.0217897 0)
(20.7451 -0.0114836 0)
(20.6826 -0.00344539 0)
(20.6243 0.00257321 0)
(20.5697 0.00674035 0)
(20.5183 0.00916475 0)
(20.4699 0.0099174 0)
(20.4242 0.00903943 0)
(20.3813 0.00655545 0)
(20.341 0.00249405 0)
(20.3033 -0.00310464 0)
(20.2682 -0.0101711 0)
(20.2359 -0.018599 0)
(20.2065 -0.0282395 0)
(20.18 -0.0388812 0)
(20.1564 -0.0502744 0)
(20.1359 -0.061585 0)
(20.1179 -0.0719292 0)
(20.1021 -0.0809642 0)
(20.0878 -0.0884082 0)
(20.0747 -0.0938983 0)
(20.0622 -0.0969704 0)
(20.05 -0.0970306 0)
(20.038 -0.0932776 0)
(20.026 -0.0847036 0)
(20.015 -0.0701295 0)
(20.0059 -0.0483451 0)
(20.0003 -0.0183328 0)
(21.6599 -0.377654 0)
(21.8045 -0.485202 0)
(21.9436 -0.619807 0)
(22.0451 -0.784824 0)
(22.0284 -0.99039 0)
(21.7298 -1.24375 0)
(20.9318 -1.53511 0)
(19.5284 -1.84471 0)
(17.709 -2.15023 0)
(15.6983 -2.45131 0)
(14.0981 -2.61021 0)
(12.9774 -2.63377 0)
(12.2524 -2.55121 0)
(-0.545272 -0.178865 0)
(-1.46669 -0.118309 0)
(-2.19541 -0.57521 0)
(-2.14965 -0.447347 0)
(-1.16265 -0.0210174 0)
(-0.326242 0.151094 0)
(1.80777 -0.223145 0)
(4.67733 -0.959313 0)
(6.74496 -1.52526 0)
(8.349 -1.91719 0)
(9.89882 -2.25959 0)
(11.0509 -2.44597 0)
(11.7472 -2.38254 0)
(21.5221 -0.294023 0)
(21.3951 -0.229575 0)
(21.2793 -0.179582 0)
(21.1741 -0.140367 0)
(21.0785 -0.109245 0)
(20.9913 -0.0843167 0)
(20.9113 -0.0642259 0)
(20.8377 -0.0480118 0)
(20.7695 -0.0349876 0)
(20.7063 -0.0246591 0)
(20.6472 -0.0166768 0)
(20.5919 -0.0107901 0)
(20.5401 -0.00682831 0)
(20.4913 -0.00467537 0)
(20.4454 -0.00425343 0)
(20.4023 -0.00550972 0)
(20.3618 -0.00840323 0)
(20.3238 -0.0128924 0)
(20.2886 -0.0189159 0)
(20.256 -0.0263856 0)
(20.2262 -0.0351854 0)
(20.1993 -0.045149 0)
(20.1753 -0.0560774 0)
(20.1543 -0.0671862 0)
(20.136 -0.0776305 0)
(20.12 -0.0871068 0)
(20.1055 -0.0953808 0)
(20.0922 -0.102149 0)
(20.0796 -0.107028 0)
(20.0674 -0.109532 0)
(20.0549 -0.108977 0)
(20.0421 -0.104444 0)
(20.0293 -0.0947401 0)
(20.0171 -0.0784542 0)
(20.0068 -0.0541265 0)
(20.0004 -0.0205416 0)