/*--------------------------------*- C++ -*----------------------------------*\
| =========                 |                                                 |
| \\      /  F ield         | OpenFOAM: The Open Source CFD Toolbox           |
|  \\    /   O peration     | Version:  2412                                  |
|   \\  /    A nd           | Website:  www.openfoam.com                      |
|    \\/     M anipulation  |                                                 |
\*---------------------------------------------------------------------------*/
FoamFile
{
    version     2.0;
    format      ascii;
    arch        "LSB;label=32;scalar=64";
    class       surfaceScalarField;
    location    "0.05";
    object      phi;
}
// * * * * * * * * * * * * * * * * * * * * * * * * * * * * * * * * * * * * * //

dimensions      [1 0 -1 0 0 0 0];

oriented        oriented;

internalField   nonuniform List<scalar> 
23538
(
3.731371426e-12
-1.796202736e-10
1.724302527e-10
-3.443913873e-10
4.021405e-10
-4.049838794e-10
6.45874501e-10
-4.183571105e-10
8.826105439e-10
-4.104449077e-10
1.101001277e-09
-3.908845667e-10
1.29275549e-09
-3.626820754e-10
1.450599595e-09
-3.268066716e-10
1.568098926e-09
-2.840347407e-10
1.639761862e-09
-2.352564517e-10
1.661005289e-09
-1.813220347e-10
1.62797048e-09
-1.229048178e-10
1.537375842e-09
-6.053840944e-11
1.38646393e-09
5.280360477e-12
1.173104759e-09
7.393435864e-11
8.960708693e-10
1.445125251e-10
5.552002236e-10
2.159201748e-10
1.517732476e-10
2.866570762e-10
-3.112165015e-10
3.549436619e-10
-8.289453178e-10
4.188501597e-10
-1.394674597e-09
4.763516201e-10
-1.999876285e-09
5.255416916e-10
-2.634484622e-09
5.647503911e-10
-3.287192613e-09
5.926089788e-10
-3.945906576e-09
6.082044165e-10
-4.598279594e-09
6.111614358e-10
-5.232264608e-09
6.01665208e-10
-5.836625978e-09
5.804237825e-10
-6.401357706e-09
5.485641119e-10
-6.917960395e-09
5.07497306e-10
-7.379566601e-09
4.587643025e-10
-7.780958388e-09
4.039167846e-10
-8.118287461e-09
3.443393954e-10
-8.389221142e-09
2.812273612e-10
-8.592161019e-09
2.154690353e-10
-8.726289889e-09
1.477144977e-10
-8.791353698e-09
7.844542719e-11
-8.787529425e-09
8.028751764e-12
-8.71537516e-09
-6.319171132e-11
-8.575912903e-09
-1.347671893e-10
-8.370893937e-09
-2.059516808e-10
-8.103093296e-09
-2.756482973e-10
-7.776699193e-09
-3.423642113e-10
-7.39754319e-09
-4.043256387e-10
-6.973016426e-09
-4.598032687e-10
-6.511788233e-09
-5.073245561e-10
-6.023389395e-09
-5.458073713e-10
-5.517742938e-09
-5.746262102e-10
-5.004699081e-09
-5.936253253e-10
-4.493618213e-09
-6.030620129e-10
-3.993084022e-09
-6.035156654e-10
-3.510680863e-09
-5.957969796e-10
-3.052879579e-09
-5.80871946e-10
-2.624986399e-09
-5.597948438e-10
-2.23116519e-09
-5.336286311e-10
-1.874520234e-09
-5.033900218e-10
-1.557190927e-09
-4.700344904e-10
-1.280488393e-09
-4.344152993e-10
-1.045007526e-09
-3.972820227e-10
-8.507899256e-10
-3.59256458e-10
-6.974615311e-10
-3.208302249e-10
-5.843536125e-10
-2.823728241e-10
-5.106196814e-10
-2.4414587e-10
-4.753024701e-10
-2.06355249e-10
-4.773599181e-10
-1.691557621e-10
-5.157626338e-10
-1.326097026e-10
-5.895138727e-10
-9.675104312e-11
-6.976587063e-10
-6.160052071e-11
-8.392737568e-10
-2.717557654e-11
-1.013461696e-09
6.49861852e-12
-1.219290022e-09
3.935652165e-11
-1.455718717e-09
7.126952433e-11
-1.721548216e-09
1.020747838e-10
-2.015353799e-09
1.315580299e-10
-2.335455769e-09
1.595033793e-10
-2.679895723e-09
1.856946278e-10
-3.046342583e-09
2.098275523e-10
-3.431812824e-09
2.313434354e-10
-3.83235747e-09
2.493643708e-10
-4.242864964e-09
2.628098942e-10
-4.656984029e-09
2.704910293e-10
-5.067124725e-09
2.711980986e-10
-5.464577933e-09
2.637886e-10
-5.839692836e-09
2.472462318e-10
-6.182085444e-09
2.20725252e-10
-6.480899187e-09
1.835877719e-10
-6.725104648e-09
1.354650377e-10
-6.903864606e-09
7.632829508e-11
-7.006961435e-09
6.580386935e-12
-7.025316677e-09
-7.28585804e-11
-6.951567585e-09
-1.604628737e-10
-6.780683514e-09
-2.540448056e-10
-6.511146208e-09
-3.502911541e-10
-6.145473907e-09
-4.451182408e-10
-5.690038835e-09
-5.347586323e-10
-5.154441574e-09
-6.159700009e-10
-4.550919371e-09
-6.860704542e-10
-3.893573212e-09
-7.431092784e-10
-3.197639597e-09
-7.858352482e-10
-2.478798006e-09
-8.136723731e-10
-1.752511305e-09
-8.266816773e-10
-1.033432589e-09
-8.255125647e-10
-3.348966091e-10
-8.113186e-10
3.314769394e-10
-7.856526616e-10
9.560425229e-10
-7.503378245e-10
1.531259458e-09
-7.073360339e-10
2.051685062e-09
-6.586245925e-10
2.513869212e-09
-6.060967318e-10
2.916284537e-09
-5.515965007e-10
3.259077572e-09
-4.967478531e-10
3.54335841e-09
-4.424801082e-10
3.770961909e-09
-3.895150747e-10
3.944522564e-09
-3.386621976e-10
4.067269557e-09
-2.905440488e-10
4.142843047e-09
-2.456069631e-10
4.1751348e-09
-2.041530459e-10
4.168156265e-09
-1.66350401e-10
4.125921869e-09
-1.32255765e-10
4.052357309e-09
-1.018271748e-10
3.951222532e-09
-7.49468995e-11
3.826066426e-09
-5.144586573e-11
3.680178794e-09
-3.109841979e-11
3.516537712e-09
-1.362483895e-11
3.337806216e-09
1.264661836e-12
3.146328303e-09
1.386716194e-11
2.944138749e-09
2.448010037e-11
2.73299104e-09
3.337139057e-11
2.514418784e-09
4.075008794e-11
2.289838033e-09
4.673028887e-11
2.060670844e-09
5.129708666e-11
1.828491898e-09
5.42964536e-11
1.595144501e-09
5.54586367e-11
1.362776001e-09
5.447165611e-11
1.133780363e-09
5.109797294e-11
9.106402546e-10
4.523974211e-11
6.958950032e-10
3.68455426e-11
4.925804883e-10
2.541066283e-11
3.054476915e-10
9.210435507e-12
1.430370068e-10
-1.553446789e-11
-3.490694263e-11
5.34387434e-11
-4.088066173e-10
3.475680834e-10
-8.140596078e-10
7.412939491e-10
-9.738086168e-10
1.156824236e-09
-1.008305714e-09
1.552615085e-09
-9.796980337e-10
1.902244779e-09
-9.127131084e-10
2.184549272e-09
-8.155630969e-10
2.380831748e-09
-6.916340684e-10
2.474785348e-09
-5.440427507e-10
2.452813426e-09
-3.763311498e-10
2.304039116e-09
-1.920170385e-10
2.020063173e-09
5.791785341e-12
1.594695045e-09
2.14388096e-10
1.023912055e-09
4.311264619e-10
3.060335605e-10
6.530523492e-10
-5.576282496e-10
8.762434451e-10
-1.562047297e-09
1.095855099e-09
-2.698104634e-09
1.306236892e-09
-3.952290649e-09
1.501139107e-09
-5.306350375e-09
1.673790471e-09
-6.737422727e-09
1.817459916e-09
-8.218524479e-09
1.925994995e-09
-9.719354567e-09
1.994298463e-09
-1.120748211e-08
2.018746213e-09
-1.264973166e-08
1.997575313e-09
-1.401371294e-08
1.931086999e-09
-1.52693517e-08
1.821686145e-09
-1.639027382e-08
1.673690857e-09
-1.735489373e-08
1.492936463e-09
-1.814713127e-08
1.286259055e-09
-1.875672719e-08
1.060941329e-09
-1.917921485e-08
8.242517504e-10
-1.941528382e-08
5.828150837e-10
-1.947051097e-08
3.422779058e-10
-1.935371361e-08
1.070711652e-10
-1.907636739e-08
-1.196660353e-10
-1.8651631e-08
-3.358566757e-10
-1.809331858e-08
-5.405481926e-10
-1.741520636e-08
-7.335054901e-10
-1.663080685e-08
-9.145902507e-10
-1.575339758e-08
-1.083318246e-09
-1.479635201e-08
-1.238507156e-09
-1.377340035e-08
-1.378253828e-09
-1.269873264e-08
-1.500232463e-09
-1.158702251e-08
-1.602099382e-09
-1.045322243e-08
-1.681929823e-09
-9.312220191e-09
-1.738503307e-09
-8.178456424e-09
-1.771408098e-09
-7.065564746e-09
-1.781058357e-09
-5.98608431e-09
-1.768568987e-09
-4.951278879e-09
-1.735562999e-09
-3.971014645e-09
-1.684046138e-09
-3.053699739e-09
-1.61626882e-09
-2.206271471e-09
-1.534612762e-09
-1.434203039e-09
-1.441500793e-09
-7.415914912e-10
-1.339263498e-09
-1.312814476e-10
-1.230070148e-09
3.949967786e-10
-1.115895384e-09
8.364510585e-10
-9.984563101e-10
1.193021022e-09
-8.791573713e-10
1.465176271e-09
-7.590935503e-10
1.653710783e-09
-6.390376578e-10
1.759541238e-09
-5.194643057e-10
1.7835797e-09
-4.006577761e-10
1.726608008e-09
-2.827282603e-10
1.589190847e-09
-1.656100286e-10
1.371694137e-09
-4.92082321e-11
1.074256919e-09
6.662371075e-11
6.968250884e-10
1.819937951e-10
2.392814776e-10
2.9689902e-10
-2.983847851e-10
4.111327452e-10
-9.158565572e-10
5.242213417e-10
-1.612293013e-09
6.354829568e-10
-2.385992338e-09
7.438752423e-10
-3.234171382e-09
8.481497044e-10
-4.152839807e-09
9.469643174e-10
-5.136555524e-09
1.038653464e-09
-6.177773169e-09
1.120661842e-09
-7.266143959e-09
1.189404346e-09
-8.388098685e-09
1.240659361e-09
-9.526720702e-09
1.269943892e-09
-1.066187741e-08
1.272830298e-09
-1.177059322e-08
1.245287002e-09
-1.282758705e-08
1.18389465e-09
-1.38059354e-08
1.086000826e-09
-1.467782199e-08
9.498759954e-10
-1.541540573e-08
7.74892086e-10
-1.599180183e-08
5.61733936e-10
-1.638220509e-08
3.126366503e-10
-1.656513835e-08
3.162557565e-11
-1.652384417e-08
-2.752577698e-10
-1.624776018e-08
-5.997507523e-10
-1.573402523e-08
-9.310943994e-10
-1.498880507e-08
-1.25607164e-09
-1.402758258e-08
-1.561668416e-09
-1.287343971e-08
-1.837038355e-09
-1.1555387e-08
-2.073506573e-09
-1.010666554e-08
-2.264804795e-09
-8.563034852e-09
-2.407039005e-09
-6.961139752e-09
-2.498604119e-09
-5.33697597e-09
-2.540054494e-09
-3.724498784e-09
-2.533910899e-09
-2.154446712e-09
-2.484367651e-09
-6.534373354e-10
-2.396924729e-09
7.566144242e-10
-2.277943863e-09
2.058748314e-09
-2.134190243e-09
3.24089656e-09
-1.97238882e-09
4.295547159e-09
-1.798879764e-09
5.219454568e-09
-1.619675853e-09
6.012962084e-09
-1.439925148e-09
6.678739762e-09
-1.262846613e-09
7.221495312e-09
-1.091182559e-09
7.647452318e-09
-9.272628202e-10
7.96386687e-09
-7.727677876e-10
8.178676458e-09
-6.288702586e-10
8.300200625e-09
-4.963001301e-10
8.336886201e-09
-3.75407699e-10
8.297098711e-09
-2.662296605e-10
8.18896818e-09
-1.685428872e-10
8.020265524e-09
-8.192157173e-11
7.798264594e-09
-5.751893192e-12
7.52967417e-09
6.072165223e-11
7.2206136e-09
1.183215465e-10
6.8765871e-09
1.679310894e-10
6.502459936e-09
2.10461713e-10
6.102485756e-09
2.467985675e-10
5.68038885e-09
2.777300429e-10
5.239504913e-09
3.03840833e-10
4.782998134e-09
3.254073824e-10
4.314131928e-09
3.42311772e-10
3.83654449e-09
3.540177393e-10
3.354443252e-09
3.596813208e-10
2.872613116e-09
3.584170754e-10
2.396134155e-09
3.496799388e-10
1.929905029e-09
3.335700865e-10
1.478271338e-09
3.105831523e-10
1.045656943e-09
2.801515153e-10
6.395440842e-10
2.374874773e-10
2.77097568e-10
1.690953183e-10
6.426143916e-11
7.59782205e-11
-6.602365316e-10
3.977353634e-10
-1.311037897e-09
8.172896811e-10
-1.568103459e-09
1.252804556e-09
-1.617816793e-09
1.655952486e-09
-1.555807247e-09
1.992282813e-09
-1.420636436e-09
2.2324523e-09
-1.225589021e-09
2.35017432e-09
-9.770552119e-10
2.322677591e-09
-6.816175905e-10
2.131394639e-09
-3.469804677e-10
1.762203126e-09
1.89434068e-11
1.205116008e-09
4.089338909e-10
4.539821047e-10
8.164767964e-10
-4.933666664e-10
1.234942905e-09
-1.634477274e-09
1.656746127e-09
-2.962041402e-09
2.07307239e-09
-4.463433016e-09
2.473711948e-09
-6.119874401e-09
2.846789493e-09
-7.905981987e-09
3.179364901e-09
-9.789934892e-09
3.458134286e-09
-1.173404768e-08
3.670398854e-09
-1.369583059e-08
3.805103437e-09
-1.562955477e-08
3.853805542e-09
-1.748822488e-08
3.811525493e-09
-1.922581259e-08
3.677384106e-09
-2.079954889e-08
3.454867039e-09
-2.217209564e-08
3.151743607e-09
-2.33133421e-08
2.779508956e-09
-2.420164595e-08
2.352419613e-09
-2.482443589e-08
1.886336078e-09
-2.51781817e-08
1.397554419e-09
-2.526790041e-08
9.018509358e-10
-2.510584308e-08
4.132327963e-10
-2.471044315e-08
-5.693367401e-11
-2.41038698e-08
-5.000849766e-10
-2.331077511e-08
-9.107530116e-10
-2.23568394e-08
-1.285926871e-09
-2.126750688e-08
-1.624998432e-09
-2.006671815e-08
-1.929349145e-09
-1.877616004e-08
-2.201224124e-09
-1.741530482e-08
-2.442493537e-09
-1.600182799e-08
-2.653868755e-09
-1.455213199e-08
-2.834789506e-09
-1.308170327e-08
-2.983858873e-09
-1.160522994e-08
-3.099472602e-09
-1.01365589e-08
-3.180430612e-09
-8.688591149e-09
-3.226278749e-09
-7.273228251e-09
-3.237380021e-09
-5.901367263e-09
-3.214894208e-09
-4.582948262e-09
-3.160617181e-09
-3.32705643e-09
-3.076761421e-09
-2.141989239e-09
-2.965855989e-09
-1.035206363e-09
-2.830765186e-09
-1.334777305e-11
-2.674483298e-09
9.177519542e-10
-2.500088179e-09
1.753347117e-09
-2.310874635e-09
2.489816019e-09
-2.11006283e-09
3.124544805e-09
-1.900605192e-09
3.655796047e-09
-1.685093058e-09
4.082554784e-09
-1.465697166e-09
4.404323636e-09
-1.244081608e-09
4.62088765e-09
-1.021389187e-09
4.73208937e-09
-7.982399526e-10
4.737598444e-09
-5.748467038e-10
4.636781754e-09
-3.510971493e-10
4.428550862e-09
-1.266070361e-10
4.111378937e-09
9.910309661e-11
3.683262193e-09
3.26562738e-10
3.141822342e-09
5.561935511e-10
2.484465825e-09
7.881526483e-10
1.708635681e-09
1.022172634e-09
8.121630521e-10
1.257389258e-09
-2.060492318e-10
1.492074498e-09
-1.345431672e-09
1.723578368e-09
-2.603596657e-09
1.948923995e-09
-3.975929029e-09
2.164648984e-09
-5.455166192e-09
2.366572692e-09
-7.03038812e-09
2.548609944e-09
-8.685954571e-09
2.702563361e-09
-1.04010609e-08
2.81912881e-09
-1.214972912e-08
2.888670452e-09
-1.390112312e-08
2.90186945e-09
-1.562021234e-08
2.850387618e-09
-1.726864206e-08
2.727308844e-09
-1.880577579e-08
2.527464767e-09
-2.018987648e-08
2.247753823e-09
-2.137945068e-08
1.887491485e-09
-2.233474133e-08
1.448809217e-09
-2.301939199e-08
9.370585622e-10
-2.340223883e-08
3.612162831e-10
-2.345921919e-08
-2.65776211e-10
-2.317535461e-08
-9.267246635e-10
-2.254677462e-08
-1.599902516e-09
-2.15828224e-08
-2.258903799e-09
-2.030591303e-08
-2.877549414e-09
-1.874908083e-08
-3.434408682e-09
-1.695369812e-08
-3.912398547e-09
-1.496711538e-08
-4.299166725e-09
-1.284032438e-08
-4.587048839e-09
-1.062568281e-08
-4.77292142e-09
-8.374738085e-09
-4.857985649e-09
-6.136203279e-09
-4.847409357e-09
-3.954221488e-09
-4.749774758e-09
-1.866990325e-09
-4.57633198e-09
9.414169524e-11
-4.340101016e-09
1.905080398e-09
-4.054914533e-09
3.548895539e-09
-3.734495425e-09
5.015314905e-09
-3.391693985e-09
6.29990327e-09
-3.038233463e-09
7.403711648e-09
-2.684661084e-09
8.331533039e-09
-2.33786818e-09
9.090903698e-09
-2.003307425e-09
9.691255672e-09
-1.685203247e-09
1.014324412e-08
-1.386479756e-09
1.045823088e-08
-1.109054419e-09
1.06478692e-08
-8.540060099e-10
1.072379186e-08
-6.217274646e-10
1.069736722e-08
-4.120622776e-10
1.057951942e-08
-2.244123764e-10
1.038056919e-08
-5.781735315e-11
1.011012754e-08
8.899186851e-11
9.777029596e-09
2.174815833e-10
9.389296809e-09
3.292483495e-10
8.954101318e-09
4.259799924e-10
8.477774688e-09
5.093979371e-10
7.965859471e-09
5.811569998e-10
7.423215226e-09
6.427001566e-10
6.854225621e-09
6.950773564e-10
6.263082641e-09
7.387469943e-10
5.654126325e-09
7.734290178e-10
5.032190415e-09
7.980916723e-10
4.402813563e-09
8.111814962e-10
3.772199295e-09
8.111466256e-10
3.146821468e-09
7.971709136e-10
2.532771135e-09
7.697192264e-10
1.935375919e-09
7.300605754e-10
1.360289064e-09
6.772989848e-10
8.184998707e-10
6.013495995e-10
3.390255568e-10
4.707081587e-10
2.253741078e-10
7.616592458e-11
-9.114130205e-10
3.864623837e-10
-1.796082618e-09
7.82390217e-10
-2.138234427e-09
1.183433867e-09
-2.192230282e-09
1.540223702e-09
-2.084810754e-09
1.815161446e-09
-1.866282615e-09
1.974841698e-09
-1.55407637e-09
1.988952398e-09
-1.157638295e-09
1.831423858e-09
-6.877515902e-10
1.481586167e-09
-1.574887274e-10
9.245576824e-10
4.194778653e-10
1.509872827e-10
1.030408674e-09
-8.428811774e-10
1.663190112e-09
-2.054786007e-09
2.305165639e-09
-3.476754552e-09
2.942989874e-09
-5.094617885e-09
3.561603057e-09
-6.88702728e-09
4.143539585e-09
-8.825139754e-09
4.669345424e-09
-1.087259564e-08
5.118478289e-09
-1.29860952e-08
5.470592616e-09
-1.511654319e-08
5.707115475e-09
-1.721082339e-08
5.812881001e-09
-1.921410116e-08
5.777669572e-09
-2.1072526e-08
5.597422441e-09
-2.273610283e-08
5.275081313e-09
-2.416142762e-08
4.820686529e-09
-2.531407806e-08
4.250970769e-09
-2.617030339e-08
3.588086609e-09
-2.67178176e-08
2.857746207e-09
-2.695567512e-08
2.087155151e-09
-2.689339749e-08
1.303083397e-09
-2.654968665e-08
5.304990651e-10
-2.595020348e-08
-2.094405995e-10
-2.51252962e-08
-9.00953741e-10
-2.410780564e-08
-1.532828184e-09
-2.29305478e-08
-2.099417318e-09
-2.162474266e-08
-2.599503809e-09
-2.021914818e-08
-3.035031164e-09
-1.873921552e-08
-3.410854749e-09
-1.720678153e-08
-3.733065564e-09
-1.564039959e-08
-4.007078967e-09
-1.405608033e-08
-4.236435957e-09
-1.246800322e-08
-4.422655658e-09
-1.088886035e-08
-4.566001673e-09
-9.329889508e-09
-4.666418114e-09
-7.800776007e-09
-4.724237538e-09
-6.309622736e-09
-4.74046451e-09
-4.863155194e-09
-4.716631006e-09
-3.467155782e-09
-4.654566364e-09
-2.126937768e-09
-4.556216184e-09
-8.478374036e-10
-4.423430122e-09
3.64339535e-10
-4.257932418e-09
1.503195456e-09
-4.06167729e-09
2.562083127e-09
-3.837127925e-09
3.534440251e-09
-3.587196539e-09
4.413916731e-09
-3.315203317e-09
5.194736099e-09
-3.024794293e-09
5.871980161e-09
-2.719688192e-09
6.44167234e-09
-2.403384978e-09
6.900709457e-09
-2.07892302e-09
7.246654545e-09
-1.74868469e-09
7.477471804e-09
-1.414281985e-09
7.591206965e-09
-1.076517569e-09
7.585675163e-09
-7.354867843e-10
7.458257025e-09
-3.907342434e-10
7.205624312e-09
-4.134988856e-11
6.823745697e-09
3.137873949e-10
6.307822862e-09
6.758706231e-10
5.652414385e-09
1.045879831e-09
4.851698092e-09
1.424310365e-09
3.899860367e-09
1.81085908e-09
2.79166087e-09
2.204118457e-09
1.523042953e-09
2.601236183e-09
9.199312039e-11
2.9976257e-09
-1.500172489e-09
3.387119784e-09
-3.248870658e-09
3.76315103e-09
-5.145974213e-09
4.118171152e-09
-7.178015598e-09
4.44090882e-09
-9.324728726e-09
4.716484596e-09
-1.155878847e-08
4.928588569e-09
-1.384604541e-08
5.0607362e-09
-1.614609335e-08
5.097228214e-09
-1.84131901e-08
5.024183332e-09
-2.059740044e-08
4.830207002e-09
-2.264593036e-08
4.506927137e-09
-2.450465673e-08
4.049539839e-09
-2.611986563e-08
3.457398851e-09
-2.744020356e-08
2.734640861e-09
-2.841879838e-08
1.890800375e-09
-2.901553254e-08
9.413524906e-10
-2.919938018e-08
-9.18474366e-11
-2.895079345e-08
-1.180254199e-09
-2.826424036e-08
-2.288249497e-09
-2.715109348e-08
-3.372522885e-09
-2.563919675e-08
-4.390220604e-09
-2.376953316e-08
-5.306845761e-09
-2.159350065e-08
-6.094815829e-09
-1.917017003e-08
-6.733990985e-09
-1.656355968e-08
-7.211632651e-09
-1.383989276e-08
-7.522260864e-09
-1.106485994e-08
-7.66744723e-09
-8.300963449e-09
-7.655360556e-09
-5.605135176e-09
-7.499957134e-09
-3.026774294e-09
-7.21980357e-09
-6.063871988e-10
-6.836592393e-09
1.625090081e-09
-6.373504613e-09
3.646249101e-09
-5.853576262e-09
5.444409022e-09
-5.298184839e-09
7.01457022e-09
-4.726565523e-09
8.359333668e-09
-4.156724016e-09
9.486351358e-09
-3.600500053e-09
1.040664753e-08
-3.066653961e-09
1.113339029e-08
-2.561526164e-09
1.1680966e-08
-2.089268935e-09
1.206428573e-08
-1.652356946e-09
1.229827614e-08
-1.251952847e-09
1.239753613e-08
-8.881916422e-10
1.237608444e-08
-5.60425905e-10
1.224718891e-08
-2.673956957e-10
1.202322882e-08
-7.334867717e-12
1.171560607e-08
2.219123271e-10
1.133471941e-08
4.227493227e-10
1.088993488e-08
5.977368644e-10
1.038957569e-08
7.495484207e-10
9.840951024e-09
8.808779314e-10
9.250427625e-09
9.942875874e-10
8.623571477e-09
1.091991094e-09
7.965388137e-09
1.175578078e-09
7.280651748e-09
1.245724551e-09
6.574288213e-09
1.301980504e-09
5.85175781e-09
1.342775022e-09
5.119288119e-09
1.365781079e-09
4.383839298e-09
1.368715626e-09
3.652709331e-09
1.350417953e-09
2.932952309e-09
1.311600618e-09
2.231222746e-09
1.253912786e-09
1.555573907e-09
1.175048404e-09
9.221164151e-10
1.056883095e-09
3.710134245e-10
8.439220656e-10
4.184810774e-10
6.947265967e-11
-1.155309311e-09
3.587358992e-10
-2.259465963e-09
7.213564976e-10
-2.674355215e-09
1.078881339e-09
-2.72230759e-09
1.382803175e-09
-2.55999026e-09
1.595075713e-09
-2.248129358e-09
1.681133019e-09
-1.807614432e-09
1.609471353e-09
-1.250916393e-09
1.353346942e-09
-5.935592162e-10
8.922774423e-10
1.451449515e-10
2.126123902e-10
9.446880307e-10
-6.924172589e-10
1.785442704e-09
-1.822270474e-09
2.647951172e-09
-3.169501539e-09
3.512602412e-09
-4.719777757e-09
4.359098488e-09
-6.450999385e-09
5.164529082e-09
-8.33302135e-09
5.903296347e-09
-1.03276357e-08
6.547787339e-09
-1.23890463e-08
7.069787265e-09
-1.446501929e-08
7.442439943e-09
-1.649873918e-08
7.642530327e-09
-1.84313167e-08
7.652787513e-09
-2.020484714e-08
7.463960377e-09
-2.176571523e-08
7.076282163e-09
-2.306795371e-08
6.50035154e-09
-2.407608074e-08
5.756710738e-09
-2.47673514e-08
4.874843094e-09
-2.513280138e-08
3.890684338e-09
-2.517699991e-08
2.843487137e-09
-2.49166389e-08
1.772581562e-09
-2.437841409e-08
7.147504525e-10
-2.35966296e-08
-2.973921687e-10
-2.260996545e-08
-1.238241296e-09
-2.145856858e-08
-2.090309915e-09
-2.017971834e-08
-2.845555056e-09
-1.88049261e-08
-3.503488492e-09
-1.736174213e-08
-4.066978544e-09
-1.58740141e-08
-4.541684682e-09
-1.43613221e-08
-4.936849144e-09
-1.283916434e-08
-5.262906597e-09
-1.13199138e-08
-5.528794303e-09
-9.814066146e-09
-5.740400805e-09
-8.331081765e-09
-5.900777546e-09
-6.879423081e-09
-6.011630616e-09
-5.465956434e-09
-6.074825171e-09
-4.09532298e-09
-6.093096869e-09
-2.769691723e-09
-6.069929831e-09
-1.489086222e-09
-6.008859575e-09
-2.523169886e-10
-5.912659202e-09
9.416052898e-10
-5.782715457e-09
2.092464269e-09
-5.619266431e-09
3.198119467e-09
-5.42167886e-09
4.253973921e-09
-5.189023811e-09
5.253058919e-09
-4.920993435e-09
6.186674749e-09
-4.618415352e-09
7.04526756e-09
-4.283444525e-09
7.819243513e-09
-3.919456953e-09
8.49967081e-09
-3.530649695e-09
9.078690827e-09
-3.121493635e-09
9.549650794e-09
-2.696181102e-09
9.906969174e-09
-2.258178612e-09
1.014582282e-08
-1.809914506e-09
1.02617148e-08
-1.352620829e-09
1.025000939e-08
-8.863774106e-10
1.010557861e-08
-4.10341202e-10
9.822358725e-09
7.708148058e-11
9.393334601e-09
5.779191976e-10
8.810393215e-09
1.094324484e-09
8.064470937e-09
1.628135272e-09
7.145895727e-09
2.180406121e-09
6.044945275e-09
2.750893697e-09
4.752604985e-09
3.337537364e-09
3.261489333e-09
3.935979338e-09
1.566786413e-09
4.539223383e-09
-3.324679305e-10
5.137472636e-09
-2.432650064e-09
5.719790706e-09
-4.725151662e-09
6.273866019e-09
-7.194428292e-09
6.781660252e-09
-9.815883166e-09
7.219336727e-09
-1.255594257e-08
7.561599473e-09
-1.537267233e-08
7.783467904e-09
-1.821655803e-08
7.861408091e-09
-2.103160756e-08
7.774705162e-09
-2.375665962e-08
7.506351963e-09
-2.632692731e-08
7.043872028e-09
-2.867582922e-08
6.38018965e-09
-3.073713432e-08
5.514562204e-09
-3.244738194e-08
4.453521751e-09
-3.374852529e-08
3.211716107e-09
-3.459069833e-08
1.812593982e-09
-3.493503258e-08
2.888789998e-10
-3.475642914e-08
-1.317170253e-09
-3.40463655e-08
-2.953451098e-09
-3.281678698e-08
-4.556109511e-09
-3.109959252e-08
-6.062026657e-09
-2.894229063e-08
-7.421205323e-09
-2.640502526e-08
-8.593339606e-09
-2.3557739e-08
-9.548391624e-09
-2.04772565e-08
-1.026663036e-08
-1.724417804e-08
-1.073868258e-08
-1.393954699e-08
-1.096554424e-08
-1.064141747e-08
-1.095820776e-08
-7.421596899e-09
-1.073669157e-08
-4.34282431e-09
-1.032841278e-08
-1.456672461e-09
-9.765983404e-09
1.197629245e-09
-9.084670223e-09
3.593359678e-09
-8.3197437e-09
5.715292436e-09
-7.503819256e-09
7.558065869e-09
-6.665749092e-09
9.126680745e-09
-5.833695553e-09
1.043306464e-08
-5.026247085e-09
1.149312572e-08
-4.256038429e-09
1.232509369e-08
-3.531655576e-09
1.294823122e-08
-2.8582665e-09
1.338190526e-08
-2.238473144e-09
1.364498409e-08
-1.673000137e-09
1.375546222e-08
-1.161195804e-09
1.373023961e-08
-7.014200409e-10
1.358499676e-08
-2.913045997e-10
1.333410536e-08
7.210949491e-11
1.299062053e-08
3.921875147e-10
1.256630355e-08
6.725256356e-10
1.207163879e-08
9.168718924e-10
1.151586109e-08
1.129072011e-09
1.090701362e-08
1.312952187e-09
1.025204798e-08
1.472112229e-09
9.556997856e-09
1.609644698e-09
8.827246239e-09
1.727759429e-09
8.067885003e-09
1.827399058e-09
7.284136688e-09
1.907964668e-09
6.481765914e-09
1.967330936e-09
5.667355977e-09
2.002341043e-09
4.848326202e-09
2.009868746e-09
4.032644114e-09
1.988211747e-09
3.228410682e-09
1.937942355e-09
2.444059299e-09
1.86038258e-09
1.690730974e-09
1.750497048e-09
9.898268017e-10
1.579877989e-09
3.901023985e-10
1.265746371e-09
6.306779721e-10
6.256964508e-11
-1.391575882e-09
3.339006128e-10
-2.704142227e-09
6.698790724e-10
-3.182971175e-09
9.938159602e-10
-3.217808914e-09
1.258665949e-09
-2.994946597e-09
1.427440346e-09
-2.585145528e-09
1.466432053e-09
-2.012552388e-09
1.345095658e-09
-1.292788463e-09
1.038064019e-09
-4.465457024e-10
5.269170104e-10
4.999047178e-10
-1.989689615e-10
1.51822881e-09
-1.142064123e-09
2.580607001e-09
-2.296614849e-09
3.659286647e-09
-3.648981808e-09
4.726693669e-09
-5.177242632e-09
5.75415018e-09
-6.85096147e-09
6.710135573e-09
-8.631215922e-09
7.560470517e-09
-1.047105474e-08
8.269433526e-09
-1.231659582e-08
8.801823221e-09
-1.410889042e-08
9.125693868e-09
-1.578659412e-08
9.215450292e-09
-1.728929504e-08
9.054793817e-09
-1.856136528e-08
8.639326902e-09
-1.955580477e-08
7.977986791e-09
-2.023799545e-08
7.093831715e-09
-2.058835484e-08
6.02248149e-09
-2.060412947e-08
4.810263561e-09
-2.029914949e-08
3.509666496e-09
-1.970194531e-08
2.174573993e-09
-1.885260665e-08
8.557720161e-10
-1.779881401e-08
-4.024708664e-10
-1.659230815e-08
-1.563546275e-09
-1.528469483e-08
-2.601984459e-09
-1.391906674e-08
-3.508575476e-09
-1.252681535e-08
-4.287071744e-09
-1.113045415e-08
-4.945248092e-09
-9.745948259e-09
-5.492327734e-09
-8.385030788e-09
-5.937934944e-09
-7.05496219e-09
-6.295604797e-09
-5.75975403e-09
-6.579103186e-09
-4.501963619e-09
-6.799164237e-09
-3.284654241e-09
-6.961776051e-09
-2.112196313e-09
-7.069441852e-09
-9.895660759e-10
-7.124066698e-09
7.972373034e-11
-7.129696938e-09
1.095613295e-09
-7.09304322e-09
2.062534914e-09
-7.022368508e-09
2.989073861e-09
-6.925394831e-09
3.886143338e-09
-6.807050849e-09
4.764654541e-09
-6.668372491e-09
5.632952492e-09
-6.506569247e-09
6.494878416e-09
-6.315978373e-09
7.348889434e-09
-6.089742854e-09
8.188105939e-09
-5.821681151e-09
9.001256663e-09
-5.507738774e-09
9.77418034e-09
-5.14673071e-09
1.049146061e-08
-4.740410624e-09
1.113788019e-08
-4.292878951e-09
1.169944064e-08
-3.809613769e-09
1.216387325e-08
-3.296412546e-09
1.252068138e-08
-2.758467143e-09
1.276080947e-08
-2.199675806e-09
1.287607298e-08
-1.622237957e-09
1.285846336e-08
-1.026542347e-09
1.269957353e-08
-4.114459577e-10
1.238990836e-08
2.253862452e-10
1.191879035e-08
8.871540795e-10
1.127410113e-08
1.577270248e-09
1.044242551e-08
2.298774656e-09
9.409481667e-09
3.053550444e-09
8.160856948e-09
3.841527392e-09
6.683008622e-09
4.659887353e-09
4.96448388e-09
5.502388481e-09
2.997169174e-09
6.358942192e-09
7.772431574e-10
7.215747724e-09
-1.693510106e-09
8.056557799e-09
-4.407544812e-09
8.863527883e-09
-7.347240982e-09
9.608697402e-09
-1.048373517e-08
1.025699848e-08
-1.377729928e-08
1.077212214e-08
-1.717824192e-08
1.111881174e-08
-2.062777323e-08
1.126398049e-08
-2.405912077e-08
1.117836456e-08
-2.739888031e-08
1.083770889e-08
-3.05687653e-08
1.022403454e-08
-3.348781817e-08
9.327036573e-09
-3.607509827e-08
8.145527567e-09
-3.825275702e-08
6.688787255e-09
-3.994934636e-08
4.977649954e-09
-4.110321362e-08
3.045265005e-09
-4.166585412e-08
9.374976015e-10
-4.160504313e-08
-1.287052561e-09
-4.090767007e-08
-3.557204794e-09
-3.958458263e-08
-5.784918793e-09
-3.767004579e-08
-7.883247807e-09
-3.521659119e-08
-9.784106967e-09
-3.229211279e-08
-1.143173628e-08
-2.897731761e-08
-1.278322861e-08
-2.536284349e-08
-1.380887816e-08
-2.154584159e-08
-1.44927609e-08
-1.762594389e-08
-1.483333335e-08
-1.370082724e-08
-1.484346086e-08
-9.861721709e-09
-1.454947569e-08
-6.189313997e-09
-1.398915524e-08
-2.750473153e-09
-1.320869119e-08
4.038301894e-10
-1.225896497e-08
3.239202676e-09
-1.119149954e-08
5.736912447e-09
-1.005423564e-08
7.891050614e-09
-8.888518229e-09
9.709515407e-09
-7.736000481e-09
1.12103993e-08
-6.625210616e-09
1.241680313e-08
-5.573575772e-09
1.335430344e-08
-4.592025073e-09
1.404915411e-08
-3.686325481e-09
1.452698906e-08
-2.858457978e-09
1.48120723e-08
-2.107812215e-09
1.492689238e-08
-1.432050781e-09
1.489199947e-08
-8.277125352e-10
1.472598105e-08
-2.906037922e-10
1.444548864e-08
1.840332216e-10
1.4065354e-08
6.01236324e-10
1.359872303e-08
9.661598124e-10
1.305714167e-08
1.284025468e-09
1.245065773e-08
1.560080464e-09
1.178791607e-08
1.799457185e-09
1.107631567e-08
2.0069399e-09
1.032220788e-08
2.186605066e-09
9.531197813e-09
2.341364547e-09
8.708534127e-09
2.472482876e-09
7.859565318e-09
2.579238707e-09
6.990187592e-09
2.658939442e-09
6.107181597e-09
2.707530623e-09
5.218315514e-09
2.720887863e-09
4.332184796e-09
2.6964687e-09
3.458014992e-09
2.63422052e-09
2.606154813e-09
2.534350491e-09
1.79084054e-09
2.387928435e-09
1.038102221e-09
2.154718808e-09
4.029125321e-10
1.723037652e-09
8.556841594e-10
5.806229168e-11
-1.622475077e-09
3.194409754e-10
-3.137957662e-09
6.420388571e-10
-3.677201995e-09
9.504966424e-10
-3.696697497e-09
1.199413823e-09
-3.412674423e-09
1.353776771e-09
-2.906274971e-09
1.382139509e-09
-2.205201762e-09
1.256531332e-09
-1.328558785e-09
9.546124996e-10
-3.026889057e-10
4.616400192e-10
8.384994603e-10
-2.284325771e-10
2.05791862e-09
-1.112404997e-09
3.318417758e-09
-2.178190622e-09
4.583265433e-09
-3.404500947e-09
5.815579083e-09
-4.760917086e-09
6.977440472e-09
-6.207994078e-09
8.028214691e-09
-7.69773477e-09
8.925093379e-09
-9.174653738e-09
9.624852547e-09
-1.057762876e-08
1.008666956e-08
-1.184262316e-08
1.027577059e-08
-1.290636878e-08
1.016745502e-08
-1.371058495e-08
9.750586892e-09
-1.420687747e-08
9.030841824e-09
-1.436106961e-08
8.031552632e-09
-1.415741514e-08
6.794337958e-09
-1.360072596e-08
5.375437576e-09
-1.271735219e-08
3.842670696e-09
-1.155273999e-08
2.267466018e-09
-1.01673786e-08
7.184775895e-10
-8.631354773e-09
-7.442929841e-10
-7.019331457e-09
-2.07241747e-09
-5.403510273e-09
-3.232160248e-09
-3.839692185e-09
-4.214730951e-09
-2.363743328e-09
-5.030916574e-09
-9.947695754e-10
-5.701015268e-09
2.629913733e-10
-6.247219175e-09
1.413338392e-09
-6.686143797e-09
2.46327293e-09
-7.029889764e-09
3.423312429e-09
-7.294465319e-09
4.304833084e-09
-7.49394163e-09
5.117436459e-09
-7.637139451e-09
5.865824821e-09
-7.72553946e-09
6.549022657e-09
-7.756853461e-09
7.162436539e-09
-7.730573773e-09
7.702591095e-09
-7.653132283e-09
8.171960942e-09
-7.538314155e-09
8.581585961e-09
-7.403767278e-09
8.950891666e-09
-7.266044635e-09