/*--------------------------------*- C++ -*----------------------------------*\
| =========                 |                                                 |
| \\      /  F ield         | OpenFOAM: The Open Source CFD Toolbox           |
|  \\    /   O peration     | Version:  2412                                  |
|   \\  /    A nd           | Website:  www.openfoam.com                      |
|    \\/     M anipulation  |                                                 |
\*---------------------------------------------------------------------------*/
FoamFile
{
    version     2.0;
    format      ascii;
    arch        "LSB;label=32;scalar=64";
    class       surfaceVectorField;
    location    "0.05";
    object      rhoUf;
}
// * * * * * * * * * * * * * * * * * * * * * * * * * * * * * * * * * * * * * //

dimensions      [1 -2 -1 0 0 0 0];

internalField   nonuniform List<vector> 
23538
(
(2.611959998e-06 -7.413352618e-05 0)
(-2.246766545e-05 -0.0001257341915 0)
(0.0001207011768 -0.0001001243257 0)
(8.128448253e-05 -0.0002410739712 0)
(0.0002814983499 -0.0001066617384 0)
(0.0002838646426 -0.0002834887155 0)
(0.0004521121506 -0.0001073800262 0)
(0.0005160103052 -0.0002928499774 0)
(0.0006178273805 -0.0001059163281 0)
(0.0007458142044 -0.0002873114353 0)
(0.0007707008938 -0.0001033606778 0)
(0.0009586450585 -0.0002736191968 0)
(0.0009049288426 -0.0001000100493 0)
(0.001143379356 -0.0002538774527 0)
(0.001015419716 -9.591491016e-05 0)
(0.001290423556 -0.0002287646699 0)
(0.001097669248 -9.110283374e-05 0)
(0.001391204149 -0.0001988243183 0)
(0.001147833303 -8.560087606e-05 0)
(0.001438379448 -0.000164679516 0)
(0.001162703702 -7.941568602e-05 0)
(0.001425923913 -0.0001269254251 0)
(0.001139579336 -7.252541119e-05 0)
(0.00134903189 -8.603337235e-05 0)
(0.001076163089 -6.48934405e-05 0)
(0.001203929282 -4.237688657e-05 0)
(0.0009705247509 -5.648926871e-05 0)
(0.000987751489 3.69625233e-06 0)
(0.000821173331 -4.730473929e-05 0)
(0.0006986063416 5.1754051e-05 0)
(0.0006272496083 -3.735265981e-05 0)
(0.0003357786055 0.0001011587675 0)
(0.0003886401564 -2.668813112e-05 0)
(-0.0001000539183 0.0001511441222 0)
(0.0001062412733 -1.543205423e-05 0)
(-0.0006061100406 0.0002006599545 0)
(-0.000217851551 -3.743162905e-06 0)
(-0.001177821394 0.0002484605631 0)
(-0.0005802617223 8.194056494e-06 0)
(-0.001808267652 0.0002931951115 0)
(-0.0009762722173 2.017596133e-05 0)
(-0.002488227675 0.0003334461337 0)
(-0.001399913399 3.200579679e-05 0)
(-0.003206172374 0.0003678791838 0)
(-0.001844139235 4.349151685e-05 0)
(-0.003948751643 0.0003953252734 0)
(-0.002301034828 5.444709925e-05 0)
(-0.004701090941 0.0004148262847 0)
(-0.002762134602 6.4711932e-05 0)
(-0.00544743922 0.0004257430941 0)
(-0.003218795714 7.415708205e-05 0)
(-0.006171860766 0.0004278130047 0)
(-0.003662585225 8.26821827e-05 0)
(-0.006858975738 0.0004211656451 0)
(-0.004085638184 9.020462904e-05 0)
(-0.007494676244 0.0004062966474 0)
(-0.004480950393 9.664361546e-05 0)
(-0.008066736459 0.0003839948779 0)
(-0.004842572275 0.0001019009874 0)
(-0.008565257504 0.0003552481138 0)
(-0.005165696619 0.0001058470096 0)
(-0.008982911165 0.0003211350114 0)
(-0.00544667087 0.0001083038775 0)
(-0.009315025598 0.0002827417509 0)
(-0.005682801221 0.0001090554521 0)
(-0.009559394324 0.0002410375765 0)
(-0.005872454798 0.0001078715976 0)
(-0.009716126182 0.0001968591526 0)
(-0.006014512712 0.000104531328 0)
(-0.009787189005 0.0001508283246 0)
(-0.00610840292 9.885009307e-05 0)
(-0.009775786335 0.0001034001483 0)
(-0.006153947586 9.070152405e-05 0)
(-0.009686162658 5.491179898e-05 0)
(-0.006151270595 8.004145091e-05 0)
(-0.009523167015 5.620126229e-06 0)
(-0.00610076261 6.693413392e-05 0)
(-0.009291781561 -4.423419819e-05 0)
(-0.00600313903 5.158857453e-05 0)
(-0.008997077338 -9.433703244e-05 0)
(-0.005859625754 3.437292711e-05 0)
(-0.008644219617 -0.0001441661764 0)
(-0.005672165306 1.582315953e-05 0)
(-0.008238631706 -0.0001929538079 0)
(-0.005443689434 -3.377938033e-06 0)
(-0.007786258383 -0.0002396549477 0)
(-0.005178280231 -2.248789923e-05 0)
(-0.007293744231 -0.0002830279468 0)
(-0.004881111497 -4.079545924e-05 0)
(-0.006768487528 -0.0003218622878 0)
(-0.004558251762 -5.768333063e-05 0)
(-0.00621853286 -0.0003551271914 0)
(-0.004216372576 -7.266918143e-05 0)
(-0.005652339541 -0.0003820651596 0)
(-0.003862420055 -8.542823663e-05 0)
(-0.005078492756 -0.0004022383467 0)
(-0.003503289355 -9.579500226e-05 0)
(-0.004505405037 -0.0004155377273 0)
(-0.003145532748 -0.0001037447665 0)
(-0.003941042084 -0.0004221434086 0)
(-0.002795158814 -0.0001093649506 0)
(-0.003392722521 -0.0004224609654 0)
(-0.002457476604 -0.0001128267022 0)
(-0.002866978517 -0.0004170578853 0)
(-0.002137015705 -0.000114359014 0)
(-0.002369469182 -0.0004066103646 0)
(-0.001837490479 -0.000114220572 0)
(-0.001904930716 -0.0003918563903 0)
(-0.001561815632 -0.0001126756449 0)
(-0.00147718806 -0.0003735400414 0)
(-0.001312164163 -0.0001099802759 0)
(-0.001089162564 -0.0003523730149 0)
(-0.001090033649 -0.0001063751409 0)
(-0.000742986272 -0.000329024143 0)
(-0.0008963418749 -0.0001020814966 0)
(-0.000440022759 -0.0003040907092 0)
(-0.0007315052678 -9.729475794e-05 0)
(-0.0001810321464 -0.0002780974156 0)
(-0.0005955529477 -9.218117519e-05 0)
(3.375478997e-05 -0.0002514795221 0)
(-0.0004882230716 -8.687931698e-05 0)
(0.0002044846355 -0.0002245811572 0)
(-0.0004090475286 -8.14998714e-05 0)
(0.0003315990324 -0.0001976609767 0)
(-0.0003574337769 -7.613633476e-05 0)
(0.0004156632529 -0.0001709021089 0)
(-0.000332711729 -7.087380788e-05 0)
(0.0004573340111 -0.0001444486742 0)
(-0.0003341519426 -6.577467944e-05 0)
(0.0004572966179 -0.0001184090333 0)
(-0.0003610338435 -6.087968762e-05 0)
(0.000416113613 -9.282679174e-05 0)
(-0.0004126597108 -5.622252948e-05 0)
(0.0003343195138 -6.772573059e-05 0)
(-0.0004883610942 -5.183091726e-05 0)
(0.0002123442512 -4.312036446e-05 0)
(-0.0005874916296 -4.772713626e-05 0)
(5.052427747e-05 -1.902290356e-05 0)
(-0.0007094231867 -4.39270978e-05 0)
(-0.0001508796978 4.549032959e-06 0)
(-0.0008535030152 -4.044204986e-05 0)
(-0.0003915803593 2.75495657e-05 0)
(-0.001019003102 -3.727394677e-05 0)
(-0.0006712058244 4.988866454e-05 0)
(-0.00120508375 -3.441029963e-05 0)
(-0.0009892074063 7.145235006e-05 0)
(-0.001410747659 -3.182707358e-05 0)
(-0.00134469931 9.209062276e-05 0)
(-0.001634819038 -2.948703159e-05 0)
(-0.001736378602 0.0001116523678 0)
(-0.001875927005 -2.734755874e-05 0)
(-0.002162436127 0.000129986233 0)
(-0.002132439807 -2.538713093e-05 0)
(-0.002620514427 0.0001468792895 0)
(-0.002402268976 -2.36260182e-05 0)
(-0.003107501259 0.000161940408 0)
(-0.002682650228 -2.211707942e-05 0)
(-0.003619136766 0.0001745550508 0)
(-0.002970005474 -2.093298661e-05 0)
(-0.004149682459 0.0001839669297 0)
(-0.003259888819 -2.016608738e-05 0)
(-0.004691794359 0.0001893437243 0)
(-0.003546987306 -1.992467514e-05 0)
(-0.005236520253 0.0001898386728 0)
(-0.003825204552 -2.032881237e-05 0)
(-0.005773407962 0.0001846520108 0)
(-0.004087784984 -2.150792127e-05 0)
(-0.00629072688 0.0001730723658 0)
(-0.004327459809 -2.35975823e-05 0)
(-0.006775751791 0.0001545076795 0)
(-0.00453662943 -2.673235285e-05 0)
(-0.007215090835 0.0001285114339 0)
(-0.004707573252 -3.103373342e-05 0)
(-0.007595064491 9.482552826e-05 0)
(-0.004832705223 -3.659373037e-05 0)
(-0.007902144378 5.342980763e-05 0)
(-0.004904873003 -4.345625404e-05 0)
(-0.008123457869 4.606270947e-06 0)
(-0.004917721673 -5.159879748e-05 0)
(-0.008247374687 -5.100100373e-05 0)
(-0.004866097308 -6.0916928e-05 0)
(-0.008264158663 -0.0001123240138 0)
(-0.004746478458 -7.113098032e-05 0)
(-0.008166568955 -0.0001778313675 0)
(-0.004557802344 -8.175431272e-05 0)
(-0.007951110787 -0.0002452037956 0)
(-0.004301831734 -9.228418669e-05 0)
(-0.007618379917 -0.0003115827748 0)
(-0.003983027183 -0.000102315654 0)
(-0.007173678779 -0.0003743310501 0)
(-0.003608109101 -0.0001114816618 0)
(-0.00662689481 -0.0004311790092 0)
(-0.003185643559 -0.0001194580629 0)
(-0.005991135382 -0.0004802492939 0)
(-0.002725501247 -0.0001259996946 0)
(-0.0052821192 -0.0005201765053 0)
(-0.002238347718 -0.0001309330261 0)
(-0.004517259376 -0.0005500846847 0)
(-0.001735158604 -0.0001341561635 0)
(-0.003714828969 -0.0005695706327 0)
(-0.001226757913 -0.0001356394961 0)
(-0.002893166606 -0.0005786771857 0)
(-0.0007234028118 -0.0001354235427 0)
(-0.002069938177 -0.0005778588069 0)
(-0.0002344276263 -0.0001336121304 0)
(-0.001261486856 -0.0005679230314 0)
(0.0002320338575 -0.0001303622548 0)
(-0.0004823040749 -0.0005499568356 0)
(0.0006692297659 -0.0001258705858 0)
(0.0002553483336 -0.0005252364876 0)
(0.00107188162 -0.0001203596932 0)
(0.0009416522784 -0.0004951352336 0)
(0.001436179543 -0.0001140651891 0)
(0.001569283185 -0.0004610371917 0)
(0.001759708448 -0.0001072420598 0)
(0.002133292272 -0.0004242677208 0)
(0.002041399175 -0.0001001490197 0)
(0.002631016562 -0.0003861175582 0)
(0.0022813543 -9.295401089e-05 0)
(0.003061804124 -0.0003477235041 0)
(0.002480350886 -8.574658902e-05 0)
(0.003426433727 -0.0003097360602 0)
(0.002639673336 -7.86503434e-05 0)
(0.003726871449 -0.0002726605578 0)
(0.002761165794 -7.180956152e-05 0)
(0.003965818345 -0.0002370635431 0)
(0.002847088689 -6.533865575e-05 0)
(0.004146696499 -0.000203380824 0)
(0.002899990132 -5.932258099e-05 0)
(0.004273411128 -0.0001719248776 0)
(0.002922594359 -5.382043803e-05 0)
(0.004350158571 -0.000142907135 0)
(0.002917709385 -4.886739338e-05 0)
(0.00438128148 -0.000116445283 0)
(0.002888145308 -4.447706913e-05 0)
(0.00437114838 -9.257903087e-05 0)
(0.002836650116 -4.064452478e-05 0)
(0.004324053182 -7.127902378e-05 0)
(0.002765855772 -3.735247329e-05 0)
(0.004244134291 -5.24628307e-05 0)
(0.002678246497 -3.457356843e-05 0)
(0.004135328658 -3.601210421e-05 0)
(0.002576125155 -3.226753969e-05 0)
(0.004001273664 -2.176889429e-05 0)
(0.002461576397 -3.03859099e-05 0)
(0.003845318523 -9.537387457e-06 0)
(0.00233646435 -2.887933437e-05 0)
(0.003670489852 8.852633029e-07 0)
(0.002202429812 -2.769725232e-05 0)
(0.003479477689 9.70701287e-06 0)
(0.002060897123 -2.678963528e-05 0)
(0.003274638957 1.71360706e-05 0)
(0.001913093727 -2.611145212e-05 0)
(0.003058020173 2.335997387e-05 0)
(0.001760093148 -2.562720325e-05 0)
(0.002831410289 2.852506013e-05 0)
(0.001602886622 -2.531643631e-05 0)
(0.002596432577 3.271120286e-05 0)
(0.00144246959 -2.517821003e-05 0)
(0.002354672687 3.590796138e-05 0)
(0.001279944328 -2.523285266e-05 0)
(0.00210783009 3.800751828e-05 0)
(0.00111660115 -2.551878409e-05 0)
(0.001857859587 3.882104375e-05 0)
(0.0009539432006 -2.608492274e-05 0)
(0.001607045581 3.813016004e-05 0)
(0.0007936462542 -2.698798655e-05 0)
(0.00135795818 3.576858178e-05 0)
(0.000637448178 -2.830831e-05 0)
(0.001113261277 3.166781789e-05 0)
(0.0004871265021 -3.020530152e-05 0)
(0.0008754610042 2.579188033e-05 0)
(0.0003448063417 -3.294195372e-05 0)
(0.0006469147552 1.778746434e-05 0)
(0.000213813384 -3.665719103e-05 0)
(0.0004303523068 6.447304984e-06 0)
(0.0001001259047 -3.391524477e-05 0)
(0.0002333403251 -1.087412698e-05 0)
(6.336331711e-05 -2.443486033e-05 0)
(3.74071204e-05 -0.0002997028099 0)
(-2.214028182e-05 -0.000286164632 0)
(0.0002432976585 -0.000435521297 0)
(0.0001289278663 -0.0005698417257 0)
(0.0005189057646 -0.0004821398111 0)
(0.0003944312879 -0.0006816660315 0)
(0.0008097769655 -0.0004854539426 0)
(0.0006961204314 -0.0007058139999 0)
(0.00108683056 -0.0004670911744 0)
(0.000990695899 -0.0006857886234 0)
(0.001331571346 -0.0004350187824 0)
(0.001255189926 -0.0006388991761 0)
(0.001529184491 -0.0003918349551 0)
(0.001470793527 -0.0005708941676 0)
(0.001666582224 -0.0003387826675 0)
(0.001620849535 -0.0004841438474 0)
(0.001732349744 -0.0002770565388 0)
(0.001690533467 -0.0003808299251 0)
(0.001716969399 -0.0002078978435 0)
(0.001667305452 -0.0002634318046 0)
(0.001612827382 -0.0001324183754 0)
(0.001541189612 -0.0001344119277 0)
(0.001414044222 -5.153648117e-05 0)
(0.001304653948 4.054249734e-06 0)
(0.001116286532 3.394396923e-05 0)
(0.0009523590576 0.000150071667 0)
(0.0007167384387 0.0001231832545 0)
(0.0004810262198 0.000301788523 0)
(0.0002142234924 0.0002150874116 0)
(-0.0001104713691 0.0004571366439 0)
(-0.0003903397749 0.0003081726436 0)
(-0.0008203845109 0.000613370411 0)
(-0.001093433109 0.0004005393729 0)
(-0.001644459033 0.0007670985682 0)
(-0.001888673245 0.0004899443887 0)
(-0.002574625557 0.0009143658302 0)
(-0.002766603455 0.0005738798578 0)
(-0.003599330552 0.001050797374 0)
(-0.003714445264 0.000649659926 0)
(-0.004702973032 0.001171653328 0)
(-0.004716195911 0.0007146368989 0)
(-0.00586609215 0.00127222194 0)
(-0.005752967138 0.0007664044661 0)
(-0.007065756427 0.001348196495 0)
(-0.006803548199 0.0008029521612 0)
(-0.008276259968 0.001396008923 0)
(-0.007845237481 0.0008228276298 0)
(-0.009470095784 0.001413122348 0)
(-0.008854812169 0.0008252778241 0)
(-0.01061917089 0.001398302727 0)
(-0.00980959906 0.0008103173122 0)
(-0.01169613479 0.001351760898 0)
(-0.0106885462 0.0007787205827 0)
(-0.01267572534 0.0012751803 0)
(-0.01147319168 0.0007319295215 0)
(-0.01353600885 0.001171583599 0)
(-0.01214842562 0.0006718943745 0)
(-0.01425936891 0.001045055523 0)
(-0.01270299189 0.0006008785296 0)
(-0.0148331533 0.0009003813376 0)
(-0.01312970904 0.0005212736605 0)
(-0.01524992951 0.0007426589294 0)
(-0.0134254504 0.0004354028346 0)
(-0.01550746421 0.0005769762287 0)
(-0.01359069868 0.0003453605562 0)
(-0.01560825287 0.0004079705582 0)
(-0.01362935768 0.0002528952143 0)
(-0.01555899224 0.0002395945338 0)
(-0.01354759953 0.0001593413371 0)
(-0.01536955777 7.494981553e-05 0)
(-0.01335345718 6.567223092e-05 0)
(-0.01505191043 -8.376622463e-05 0)
(-0.01305614171 -2.743780838e-05 0)
(-0.01461937908 -0.0002350996727 0)
(-0.01266532301 -0.0001194929442 0)
(-0.01408586672 -0.0003783837345 0)
(-0.01219064446 -0.0002099864716 0)
(-0.0134650018 -0.0005134538462 0)
(-0.0116415648 -0.0002982355127 0)
(-0.01276960978 -0.0006402131749 0)
(-0.01102737831 -0.000383235192 0)
(-0.01201156597 -0.0007583227711 0)
(-0.01035744641 -0.0004635998164 0)
(-0.01120196464 -0.0008669550081 0)
(-0.009641380246 -0.0005376426743 0)
(-0.01035152643 -0.0009647776789 0)
(-0.008889112852 -0.0006035863673 0)
(-0.009470703645 -0.001050162723 0)
(-0.008110915758 -0.0006598189617 0)
(-0.008569843965 -0.001121469566 0)
(-0.007317255704 -0.0007050945821 0)
(-0.007659150455 -0.001177350883 0)
(-0.006518554136 -0.0007386474604 0)
(-0.006748541152 -0.001216952314 0)
(-0.005724919499 -0.0007602304365 0)
(-0.005847491903 -0.001239985667 0)
(-0.004945895324 -0.0007700853324 0)
(-0.004964895686 -0.001246740848 0)
(-0.004190259018 -0.0007688516524 0)
(-0.004108959213 -0.001237998289 0)
(-0.003465895216 -0.0007574625559 0)
(-0.003287160802 -0.001214894098 0)
(-0.002779710252 -0.0007370532954 0)
(-0.002506218595 -0.001178832295 0)
(-0.002137589818 -0.0007088769816 0)
(-0.00177209996 -0.001131388181 0)
(-0.00154439003 -0.0006742213419 0)
(-0.001089928168 -0.001074228932 0)
(-0.001003942128 -0.0006343348846 0)
(-0.0004640734001 -0.001009050554 0)
(-0.000519114044 -0.0005903934881 0)
(0.0001019185757 -0.0009374844475 0)
(-9.189701338e-05 -0.0005434751135 0)
(0.0006053712949 -0.0008610491026 0)
(0.0002764977452 -0.0004945289348 0)
(0.001044446688 -0.0007811267678 0)
(0.0005855157412 -0.0004443561068 0)
(0.001417944244 -0.0006989194164 0)
(0.0008351147158 -0.000393602612 0)
(0.001725266204 -0.0006154101636 0)
(0.00102562339 -0.0003427604317 0)
(0.001966244358 -0.0005313654847 0)
(0.001157597549 -0.0002921761911 0)
(0.002141025853 -0.00044732636 0)
(0.001231678867 -0.0002420919847 0)
(0.002249845266 -0.0003636250136 0)
(0.00124850579 -0.0001926754892 0)
(0.002292991077 -0.000280460443 0)
(0.001208625606 -0.0001440096268 0)
(0.002270626372 -0.000197909782 0)
(0.001112433593 -9.61208131e-05 0)
(0.002182646499 -0.0001159270199 0)
(0.0009601858963 -4.901396407e-05 0)
(0.002028778493 -3.444576268e-05 0)
(0.0007519798436 -2.683287432e-06 0)
(0.001808489787 4.663659748e-05 0)
(0.000487777562 4.286163718e-05 0)
(0.00152101104 0.0001273956565 0)
(0.0001674970344 8.756087458e-05 0)
(0.001165397354 0.0002078293138 0)
(-0.0002088693497 0.0001312737146 0)
(0.0007406939069 0.0002877929274 0)
(-0.0006410995903 0.0001737841658 0)
(0.0002461007546 0.0003669549209 0)
(-0.00112860511 0.0002148152399 0)
(-0.0003189470843 0.0004448380787 0)
(-0.001670194637 0.0002540466749 0)
(-0.0009540623004 0.00052071268 0)
(-0.002263919968 0.0002911214089 0)
(-0.001658018965 0.0005937048049 0)
(-0.002906987866 0.0003255958004 0)
(-0.002428438934 0.000662874989 0)
(-0.003595588868 0.0003568041211 0)
(-0.00326167824 0.0007270574392 0)
(-0.00432444122 0.0003837142367 0)
(-0.004152449173 0.0007844633048 0)
(-0.005086300773 0.0004049496912 0)
(-0.005093115697 0.0008325830005 0)
(-0.005871669082 0.0004189301093 0)
(-0.006073147788 0.0008684615699 0)
(-0.006668704494 0.0004240013531 0)
(-0.007078999917 0.000888960742 0)
(-0.00746331419 0.0004185611703 0)
(-0.008094180639 0.0008909812265 0)
(-0.008239415255 0.000401164328 0)
(-0.009099506684 0.000871700858 0)
(-0.008979310942 0.0003705924349 0)
(-0.01007354997 0.0008287262714 0)
(-0.009664154786 0.000325911768 0)
(-0.01099319107 0.0007602005933 0)
(-0.0102744754 0.0002665395545 0)
(-0.01183425309 0.0006649131636 0)
(-0.01079078402 0.0001923266386 0)
(-0.01257222553 0.0005424244711 0)
(-0.01119426129 0.0001036576009 0)
(-0.01318308374 0.0003932137631 0)
(-0.01146754357 1.56099283e-06 0)
(-0.01364420858 0.0002188456596 0)
(-0.01159559685 -0.0001121811114 0)
(-0.01393541664 2.213790185e-05 0)
(-0.01156669093 -0.0002349293035 0)
(-0.01404007289 -0.0001926804427 0)
(-0.01137343213 -0.0003629893193 0)
(-0.01394606367 -0.000419825535 0)
(-0.01101381767 -0.0004915416395 0)
(-0.01364791758 -0.000651766047 0)
(-0.01049216356 -0.000615347416 0)
(-0.0131466098 -0.0008792501654 0)
(-0.009819307809 -0.0007296740982 0)
(-0.01245166119 -0.001093167913 0)
(-0.009011407798 -0.0008305987436 0)
(-0.0115800605 -0.001285926874 0)
(-0.0080887709 -0.000915088872 0)
(-0.01055422832 -0.001451454528 0)
(-0.007074665882 -0.0009810660416 0)
(-0.009400952022 -0.001585363388 0)
(-0.005994124399 -0.001027377459 0)
(-0.008149861512 -0.001684927337 0)
(-0.004872797828 -0.001053752383 0)
(-0.00683204292 -0.001749022796 0)
(-0.00373588318 -0.00106073797 0)
(-0.005478699503 -0.001778038181 0)
(-0.00260714915 -0.001049604339 0)
(-0.004119890407 -0.001773737665 0)
(-0.001508112699 -0.001022215502 0)
(-0.002783408842 -0.001739057391 0)
(-0.0004574061349 -0.0009808708164 0)
(-0.001493859775 -0.001677847226 0)
(0.0005296300971 -0.0009281295921 0)
(-0.0002719938934 -0.001594560736 0)
(0.001441123821 -0.0008666375605 0)
(0.0008656704095 -0.0014939332 0)
(0.002268627593 -0.0007989792784 0)
(0.001906924722 -0.001380672105 0)
(0.003006883013 -0.0007276413552 0)
(0.002843604789 -0.00125921586 0)
(0.003653618199 -0.000654874069 0)
(0.003671662207 -0.00113377312 0)
(0.004209073461 -0.0005823396432 0)
(0.004389708857 -0.001007947624 0)
(0.004675117835 -0.0005112004726 0)
(0.004999677181 -0.0008839925847 0)
(0.00505504672 -0.0004424844374 0)
(0.005505257307 -0.0007638278063 0)
(0.005353216625 -0.000377076331 0)
(0.005911325514 -0.0006490839871 0)
(0.005574706811 -0.0003156341606 0)
(0.00622384521 -0.0005409374242 0)
(0.005725073523 -0.0002586157875 0)
(0.006449398875 -0.0004402091898 0)
(0.00581014044 -0.0002063012211 0)
(0.006594908717 -0.000347410098 0)
(0.005835820343 -0.0001588161396 0)
(0.006667423359 -0.0002627853945 0)
(0.0058079691 -0.000116155672 0)
(0.006673940888 -0.000186360753 0)
(0.005732277728 -7.820863375e-05 0)
(0.006621269523 -0.0001179800234 0)
(0.005614185869 -4.477806332e-05 0)
(0.006515936911 -5.734510136e-05 0)
(0.005458785218 -1.55930278e-05 0)
(0.006364084379 -4.026325033e-06 0)
(0.005270771921 9.673350797e-06 0)
(0.006171379421 4.250515741e-05 0)
(0.005054429522 3.138175882e-05 0)
(0.005943029845 8.282508422e-05 0)
(0.004813610972 4.991182337e-05 0)
(0.005683733998 0.000117551765 0)
(0.004551721957 6.564680472e-05 0)
(0.005397666761 0.0001473231917 0)
(0.004271740031 7.894841893e-05 0)
(0.005088491318 0.0001727590007 0)
(0.003976272196 9.011929185e-05 0)
(0.004759402437 0.0001944110339 0)
(0.003667653441 9.935829967e-05 0)
(0.004413217163 0.0002126885725 0)
(0.003348098695 0.0001067175728 0)
(0.004052524294 0.0002277851722 0)
(0.003019892351 0.0001120750034 0)
(0.003679886262 0.0002396182452 0)
(0.002685581144 0.0001151457414 0)
(0.003298067868 0.0002478124225 0)
(0.002348110277 0.000115552194 0)
(0.00291023785 0.000251776912 0)
(0.002010829182 0.0001129525931 0)
(0.002520053834 0.0002508919578 0)
(0.001677293909 0.0001071754135 0)
(0.002131548568 0.0002447759621 0)
(0.001350933521 9.822226154e-05 0)
(0.001748779053 0.0002334990489 0)
(0.001034789937 8.591558758e-05 0)
(0.001375378918 0.0002174082109 0)
(0.0007319598607 6.90593386e-05 0)
(0.001014533282 0.0001961060646 0)
(0.0004476808591 4.445806977e-05 0)
(0.0006695731129 0.0001662412375 0)
(0.0001939682977 1.306531154e-05 0)
(0.0003524015973 0.0001183667169 0)
(8.589728272e-05 4.498300831e-05 0)
(5.318475434e-05 -0.0005583925703 0)
(-1.935265034e-05 -0.000462165572 0)
(0.0002784147543 -0.0008173112271 0)
(0.000140911811 -0.0009177265283 0)
(0.0005721027766 -0.0009066050832 0)
(0.0004095687948 -0.001097672421 0)
(0.0008769631892 -0.0009074622018 0)
(0.0007097033354 -0.001132471755 0)
(0.00115916674 -0.0008589511851 0)
(0.0009958036768 -0.001089065073 0)
(0.001394597969 -0.0007761500844 0)
(0.00124146872 -0.0009944455057 0)
(0.00156271661 -0.0006645774645 0)
(0.001423617201 -0.0008579123144 0)
(0.001645122023 -0.0005275405524 0)
(0.001521294208 -0.0006839386477 0)
(0.001625874314 -0.0003685083657 0)
(0.001515842622 -0.0004771323129 0)
(0.001491976247 -0.0001911912613 0)
(0.001391708528 -0.0002428863271 0)
(0.001233542188 8.803542799e-07 0)
(0.001137000667 1.326038484e-05 0)
(0.0008435812052 0.0002045706576 0)
(0.0007432999266 0.0002862537233 0)
(0.0003177874732 0.0004169693267 0)
(0.0002054652541 0.0005715337569 0)
(-0.0003453566664 0.0006349692488 0)
(-0.0004782732319 0.0008644600324 0)
(-0.001144134091 0.0008547716217 0)
(-0.00130613417 0.001159722288 0)
(-0.002073428981 0.001071772586 0)
(-0.00227254613 0.001451150672 0)
(-0.00312440311 0.001280608666 0)
(-0.00336802789 0.001731598362 0)
(-0.004283912079 0.001475153904 0)
(-0.004578343389 0.001992752657 0)
(-0.005534187389 0.001648763749 0)
(-0.005884346615 0.002225555428 0)
(-0.006852954422 0.001794670655 0)
(-0.007261983754 0.002420693998 0)
(-0.008213833376 0.001906503599 0)
(-0.008682722384 0.002569279195 0)
(-0.009587081407 0.001978798377 0)
(-0.01011434695 0.002663572404 0)
(-0.01094068833 0.002007462145 0)
(-0.01152214716 0.002697663876 0)
(-0.01224175741 0.001990174923 0)
(-0.01287043876 0.002668067842 0)
(-0.01345806881 0.001926665722 0)
(-0.0141243153 0.002574168889 0)
(-0.01455968422 0.001818814734 0)
(-0.01525146148 0.002418406925 0)
(-0.01552046694 0.001670554832 0)
(-0.01622387117 0.002206220523 0)
(-0.01631933946 0.001487552281 0)
(-0.01701930781 0.001945656267 0)
(-0.01694115216 0.001276724715 0)
(-0.01762229447 0.001646693727 0)
(-0.01737710512 0.00104568954 0)
(-0.01802455102 0.001320435253 0)
(-0.01762472718 0.0008022422401 0)
(-0.01822485533 0.0009782880921 0)
(-0.01768753029 0.0005537856993 0)
(-0.01822862021 0.0006312956588 0)
(-0.01757409015 0.0003067833041 0)
(-0.01804690524 0.0002892629571 0)
(-0.0172973102 6.647152691e-05 0)
(-0.01769527775 -3.985357177e-05 0)
(-0.01687270886 -0.0001632820452 0)
(-0.01719209879 -0.0003500594832 0)
(-0.01631754257 -0.000379841042 0)
(-0.01655758025 -0.0006375271075 0)
(-0.01564978758 -0.0005816848211 0)
(-0.01581187889 -0.0009001488085 0)
(-0.01488725481 -0.0007683881191 0)
(-0.0149746543 -0.001137498901 0)
(-0.0140467027 -0.0009401860172 0)
(-0.01406425698 -0.00135054441 0)
(-0.01314331202 -0.001097363891 0)
(-0.01309699021 -0.001540856885 0)
(-0.01219071337 -0.001239784746 0)
(-0.01208705608 -0.001709745474 0)
(-0.01120127959 -0.001366676979 0)
(-0.01104692602 -0.001857708127 0)
(-0.01018649239 -0.001476723977 0)
(-0.009987809256 -0.001984352652 0)
(-0.009157192285 -0.001568362818 0)
(-0.008919996091 -0.002088701209 0)
(-0.008123660957 -0.001640155078 0)
(-0.007852977357 -0.002169630819 0)
(-0.007095591227 -0.001691095117 0)
(-0.006795407462 -0.002226301442 0)
(-0.006082013803 -0.001720771077 0)
(-0.00575504772 -0.002258395122 0)
(-0.005091259774 -0.001729414186 0)
(-0.004738765734 -0.002266166013 0)
(-0.004130957083 -0.001717855728 0)
(-0.003752642644 -0.002250425943 0)
(-0.003208063782 -0.001687390732 0)
(-0.002802168444 -0.002212432024 0)
(-0.0023289395 -0.001639643172 0)
(-0.001892484237 -0.002153732993 0)
(-0.001499392467 -0.001576483133 0)
(-0.001028511744 -0.00207609919 0)
(-0.0007246444537 -0.001499917943 0)
(-0.0002151137107 -0.001981535642 0)
(-9.343441131e-06 -0.00141201225 0)
(0.000542831474 -0.001872138307 0)
(0.0006424263678 -0.001314857129 0)
(0.00124090244 -0.001750061723 0)
(0.001227342982 -0.001210479019 0)
(0.001874883012 -0.001617612243 0)
(0.001742871212 -0.00110073665 0)
(0.002441160155 -0.00147704398 0)
(0.002187181363 -0.0009872669658 0)
(0.002936782372 -0.001330423633 0)
(0.002559057232 -0.0008714527179 0)
(0.003359422173 -0.00117956514 0)
(0.002857788348 -0.0007543956128 0)
(0.003707382448 -0.001025988023 0)
(0.003083026544 -0.0006369073955 0)
(0.003979463578 -0.0008708571249 0)
(0.003234621354 -0.0005195168491 0)
(0.004174810178 -0.0007149724305 0)
(0.003312462558 -0.0004025143685 0)
(0.004292669363 -0.0005587679662 0)
(0.00331631891 -0.0002860086125 0)
(0.004332316584 -0.0004023926923 0)
(0.003245747227 -0.0001699531497 0)
(0.004292765531 -0.0002457680042 0)
(0.003099985603 -5.421019566e-05 0)
(0.004172662071 -8.862492519e-05 0)
(0.002877965255 6.139456089e-05 0)
(0.003970277259 6.937216804e-05 0)
(0.002578283535 0.0001770303413 0)
(0.003683444051 0.0002285939164 0)
(0.002199275639 0.0002927842684 0)
(0.00330957352 0.0003893354854 0)
(0.001739126077 0.0004085840842 0)
(0.002845775353 0.0005517068533 0)
(0.001196044976 0.0005241180976 0)
(0.002289043366 0.0007155208581 0)
(0.0005685141363 0.0006387761019 0)
(0.001636559193 0.0008801724363 0)
(-0.0001442344622 0.000751551236 0)
(0.0008859168668 0.001044452169 0)
(-0.0009418021698 0.0008611535679 0)
(3.593648316e-05 0.001206504882 0)
(-0.001822517659 0.0009662144176 0)
(-0.0009133090811 0.001364246823 0)
(-0.00278315032 0.001065095644 0)
(-0.001959302921 0.001515254213 0)
(-0.003818616333 0.001155466332 0)
(-0.003097976642 0.001656600917 0)
(-0.004921271683 0.001234045782 0)
(-0.004322660288 0.001784026997 0)
(-0.006080168198 0.001296752247 0)
(-0.005622975402 0.001891794258 0)
(-0.007280742629 0.00133907626 0)
(-0.006984206015 0.001973390206 0)
(-0.008504810378 0.00135643547 0)
(-0.008387343086 0.002022069357 0)
(-0.009730786185 0.001344512467 0)
(-0.009809294412 0.002031308656 0)
(-0.01093414864 0.0012995376 0)
(-0.0112232919 0.001995271233 0)
(-0.01208804944 0.00121848147 0)
(-0.01259955263 0.001909116229 0)
(-0.01316404305 0.00109921376 0)
(-0.01390605232 0.001769225373 0)
(-0.01413291353 0.0009406697664 0)
(-0.01510940993 0.001573427597 0)
(-0.01496561547 0.0007430413106 0)
(-0.01617590176 0.001321244066 0)
(-0.01563431893 0.0005079895691 0)
(-0.01707260522 0.001014166472 0)
(-0.01611357439 0.00023886767 0)
(-0.01776866643 0.0006559410067 0)
(-0.01638156717 -5.906495743e-05 0)
(-0.01823669002 0.0002528513855 0)
(-0.01642145343 -0.000378454049 0)
(-0.01845420212 -0.0001860433514 0)
(-0.01622274823 -0.0007096737748 0)
(-0.01840490242 -0.0006487072774 0)
(-0.01578274223 -0.001040719247 0)
(-0.01808118978 -0.001119931705 0)
(-0.01510797568 -0.001358450866 0)
(-0.01748452813 -0.001581232691 0)
(-0.01421413912 -0.001650917752 0)
(-0.01662743897 -0.00201428463 0)
(-0.01312435658 -0.001908392488 0)
(-0.01553245544 -0.002404086126 0)
(-0.01186758868 -0.002123448628 0)
(-0.01422910848 -0.002738678846 0)
(-0.01047698076 -0.002291051133 0)
(-0.01275271898 -0.003009416768 0)
(-0.008988227065 -0.002408500171 0)
(-0.01114247758 -0.003210934252 0)
(-0.007437977965 -0.002475325244 0)
(-0.009439694619 -0.003341044827 0)
(-0.005862316658 -0.002493123433 0)
(-0.00768605692 -0.003400590022 0)
(-0.004295342294 -0.002465316886 0)
(-0.005921926897 -0.003393186618 0)
(-0.002767955041 -0.002396820895 0)
(-0.004184778301 -0.003324842397 0)
(-0.001306893227 -0.002293633635 0)
(-0.002507867909 -0.003203432226 0)
(6.589918665e-05 -0.002162380447 0)
(-0.0009192390141 -0.003038070772 0)
(0.001333556279 -0.002009859323 0)
(0.0005588727922 -0.00283844023 0)
(0.002484226877 -0.001842647053 0)
(0.001910185888 -0.002614146667 0)
(0.003510720433 -0.001666882844 0)
(0.003124017728 -0.002374185837 0)
(0.004409932288 -0.001488115256 0)
(0.004195478238 -0.002126763466 0)
(0.005182598152 -0.001310609898 0)
(0.005122557674 -0.001879262796 0)
(0.005832073125 -0.001137399907 0)
(0.005909210676 -0.001636507644 0)
(0.006363632587 -0.0009709772552 0)
(0.006561013639 -0.001402315226 0)
(0.006783878969 -0.0008132677355 0)
(0.007085162833 -0.001179642296 0)
(0.007100270881 -0.0006656196079 0)
(0.007490155904 -0.0009705357808 0)
(0.007320761615 -0.0005289111784 0)
(0.007785061232 -0.000776338109 0)
(0.007453508437 -0.0004036211347 0)
(0.007979187196 -0.0005978042189 0)
(0.007506654302 -0.0002898958484 0)
(0.008081821543 -0.0004352092339 0)
(0.007488157051 -0.00018760982 0)
(0.008102029863 -0.0002884435799 0)
(0.007405663592 -9.641657836e-05 0)
(0.008048507342 -0.0001570886666 0)
(0.007266398428 -1.578327387e-05 0)
(0.007929498879 -4.047214801e-05 0)
(0.007077089278 5.497149101e-05 0)
(0.007752644401 6.229430484e-05 0)
(0.006843920715 0.0001166258449 0)
(0.007525000407 0.0001522371113 0)
(0.006572507764 0.0001700200837 0)
(0.007252983649 0.0002304738493 0)
(0.006267870921 0.0002160329102 0)
(0.006942347223 0.0002981860007 0)
(0.00593444228 0.0002555406569 0)
(0.006598185432 0.0003565785381 0)
(0.005576101628 0.0002893539932 0)
(0.006224954592 0.000406809908 0)
(0.005196250657 0.0003181317879 0)
(0.005826534109 0.0004498901186 0)
(0.004797957933 0.0003422796541 0)
(0.005406346781 0.0004865541251 0)