/*--------------------------------*- C++ -*----------------------------------*\
| =========                 |                                                 |
| \\      /  F ield         | OpenFOAM: The Open Source CFD Toolbox           |
|  \\    /   O peration     | Version:  2412                                  |
|   \\  /    A nd           | Website:  www.openfoam.com                      |
|    \\/     M anipulation  |                                                 |
\*---------------------------------------------------------------------------*/
FoamFile
{
    version     2.0;
    format      ascii;
    arch        "LSB;label=32;scalar=64";
    class       volScalarField;
    location    "0.05";
    object      T;
}
// * * * * * * * * * * * * * * * * * * * * * * * * * * * * * * * * * * * * * //

dimensions      [0 0 0 1 0 0 0];

internalField   nonuniform List<scalar> 
12008
(
305.2008648
305.2021566
305.2047596
305.2089355
305.2150157
305.2234539
305.2348335
305.2498726
305.2694248
305.2944738
305.3261173
305.3655401
305.4139713
305.472628
305.542643
305.6249794
305.720336
305.8290481
305.9509936
306.0855105
306.2313386
306.3865916
306.5487668
306.7147962
306.8811389
307.0439079
307.1990266
307.342401
307.4700983
307.5785173
307.6645385
307.7256403
307.7596418
307.7662927
307.7453948
307.6974625
307.6239718
307.5271572
307.4098914
307.27555
307.127858
306.9707249
306.8080751
306.6436982
306.481109
306.3234342
306.1733281
306.0329198
305.9037913
305.786984
305.6830302
305.5920049
305.5135924
305.4471625
305.3918507
305.3466387
305.3104291
305.2821129
305.2606269
305.2449972
305.234371
305.228037
305.2254254
305.2260993
305.2297555
305.2361909
305.2452615
305.2568603
305.2708867
305.2872175
305.3056839
305.326057
305.3480448
305.3712998
305.3954378
305.4200657
305.4448142
305.4693696
305.4935001
305.517069
305.540033
305.5624211
305.5842987
305.6057199
305.6266763
305.6470501
305.6665822
305.6848583
305.7013194
305.715294
305.72605
305.7328001
305.7349489
305.7320435
305.7237329
305.7099195
305.6907547
305.6666361
305.6381817
305.6061868
305.5715708
305.5353188
305.4984219
305.4618234
305.4263716
305.3927849
305.3616277
305.3333009
305.3080427
305.2859409
305.2669525
305.250929
305.2376428
305.226815
305.2181392
305.2113031
305.206005
305.2019651
305.1989341
305.1966959
305.1950691
305.1939051
305.1930851
305.1925163
305.1921279
305.1918668
305.191694
305.1915817
305.19151
305.1914652
305.191438
305.191422
305.1914128
305.1914076
305.1914041
305.1914005
305.1913953
305.1913868
305.1913737
305.191358
305.2019119
305.2033237
305.206184
305.2107677
305.2174342
305.2266755
305.2391238
305.2555566
305.2768982
305.3042127
305.3386869
305.3816001
305.4342788
305.4980349
305.5740876
305.6634714
305.7669343
305.8848328
306.0170305
306.162813
306.3208263
306.4890491
306.6648063
306.844825
307.0253339
307.2021985
307.3710852
307.5276418
307.6676824
307.7873646
307.8833489
307.9529355
307.9935197
308.0047973
307.9867186
307.939433
307.8643787
307.7637886
307.6405856
307.4982536
307.3406842
307.1720081
306.9964252
306.8180324
306.6406737
306.4678141
306.3024402
306.1469943
306.0033402
305.8727608
305.7559835
305.6532285
305.5642755
305.4885421
305.4251683
305.3731022
305.3311834
305.2982173
305.2730407
305.2545737
305.2418579
305.2340798
305.2305786
305.2308413
305.2344864
305.2412727
305.2510031
305.2635313
305.2787236
305.2964281
305.3164516
305.3385462
305.3624087
305.3876919
305.4140272
305.4410559
305.4684632
305.4960087
305.5235473
305.5510342
305.5785099
305.6060648
305.6337884
305.6617084
305.6897317
305.7175953
305.744838
305.7707981
305.7946394
305.8154027
305.8320777
305.8436508
305.8491591
305.8482067
305.8402971
305.8253057
305.8034288
305.7751774
305.7413354
305.7029042
305.6610363
305.6169633
305.5719239
305.5270977
305.4835491
305.4421832
305.4037167
305.3686649
305.3373422
305.3098765
305.2862321
305.2662401
305.2496316
305.2360707
305.2251853
305.216593
305.2099222
305.2048272
305.2009984
305.1981668
305.1961056
305.1946286
305.1935867
305.1928631
305.1923682
305.192035
305.1918143
305.1916705
305.1915785
305.1915208
305.1914855
305.1914646
305.1914526
305.1914458
305.1914418
305.1914384
305.1914339
305.1914264
305.1914111
305.1913733
305.2039596
305.2056242
305.2090055
305.2144148
305.2222675
305.2331313
305.2477344
305.266971
305.2919021
305.3237468
305.363862
305.4137066
305.4747886
305.5485942
305.6364989
305.7396643
305.858924
305.9946681
306.1467327
306.3143089
306.4958779
306.6891854
306.891259
307.0984724
307.3066532
307.5112292
307.7074017
307.8903357
308.0553542
308.1981248
308.3148304
308.4023179
308.4576594
308.4794472
308.4683832
308.4238192
308.347044
308.2402317
308.1063614
307.9490994
307.7726473
307.5815648
307.3805823
307.1744119
306.9675694
306.7642164
306.5680302
306.3821073
306.2089045
306.0502162
305.9071864
305.7803501
305.6696991
305.5747642
305.4947084
305.4284251
305.3746347
305.3319762
305.2990881
305.274677
305.2575691
305.2467451
305.2413569
305.2407279
305.2443122
305.2517901
305.2628519
305.2772661
305.2948281
305.315326
305.3385174
305.3641193
305.3918133
305.4212646
305.4521524
305.4842071
305.5172455
305.5511964
305.5861085
305.6221342
305.6594864
305.6983719
305.7389102
305.7810479
305.8244852
305.8686259
305.9125611
305.9550921
305.9947911
306.0300914
306.0594002
306.0812168
306.093968
306.0970677
306.0900279
306.0725364
306.0448926
306.007846
305.9625298
305.91038
305.8530414
305.7922678
305.729824
305.6673946
305.6065059
305.5484645
305.4943156
305.4448227
305.4004667
305.3614639
305.3277968
305.2992557
305.2754843
305.2560265
305.2403694
305.2279812
305.2183411
305.2109618
305.2054042
305.2012853
305.198281
305.196124
305.1945994
305.1935385
305.1928117
305.1923214
305.1919959
305.1917832
305.1916467
305.1915608
305.1915078
305.1914761
305.1914578
305.1914476
305.1914421
305.1914387
305.1914359
305.1914323
305.191425
305.1913862
305.2071305
305.2091811
305.2133576
305.2200255
305.2296827
305.2430087
305.2608718
305.2843357
305.3146583
305.3532803
305.4017987
305.4619232
305.5354123
305.6239894
305.7292395
305.8524911
305.9946881
306.1562609
306.3370077
306.5359957
306.7514956
306.9809567
307.2210289
307.4676333
307.7160773
307.9612077
308.1975923
308.4197183
308.6221982
308.7999694
308.9484801
309.0638501
309.1429347
309.1823855
309.1837511
309.1455313
309.068646
308.9551044
308.8078813
308.6308209
308.4284873
308.205985
307.9687585
307.7223808
307.4723391
307.2238317
306.9815879
306.7497227
306.5316339
306.3299439
306.146487
305.9823366
305.8378653
305.7128319
305.606485
305.517677
305.4449826
305.3868131
305.3415233
305.3075035
305.2832541
305.2674394
305.2589174
305.2567491
305.2601414
305.2686045
305.2816811
305.2989854
305.3201971
305.3450092
305.3731067
305.4041638
305.437859
305.4739066
305.512099
305.55235
305.594728
305.6394683
305.6869542
305.7376607
305.7920627
305.8505171
305.9131347
305.9796609
306.0493869
306.1211067
306.1931296
306.2633492
306.3293622
306.3886226
306.4386145
306.4770273
306.5015931
306.5109785
306.5051696
306.4833996
306.4461528
306.3945718
306.3303543
306.255633
306.1728411
306.0845709
305.9934357
305.9019394
305.8123642
305.726679
305.6464767
305.5729395
305.506835
305.4485377
305.3980723
305.3551717
305.3193437
305.2899393
305.2662174
305.2474006
305.2327218
305.2214584
305.2129557
305.2066398
305.202023
305.1987011
305.1963484
305.194708
305.1935818
305.1928206
305.1923141
305.1919825
305.1917689
305.1916339
305.1915502
305.1914997
305.1914702
305.1914537
305.191445
305.1914408
305.1914387
305.1914374
305.1914333
305.1913951
305.2115311
305.2141074
305.2193653
305.2277415
305.2398417
305.2564896
305.2787344
305.3078561
305.3453619
305.3929701
305.4525756
305.5261953
305.61589
305.7236653
305.8513513
306.0004678
306.1720818
306.366667
306.5839754
306.8229355
307.0815842
307.3570432
307.645543
307.9424944
308.2426048
308.5400322
308.8285697
309.1018523
309.3535777
309.57773
309.7687951
309.921962
310.03331
310.0989354
310.1185782
310.0916584
310.0180801
309.8995944
309.7390505
309.5403623
309.3083619
309.0486391
308.7673571
308.4710374
308.1663183
307.859699
307.5572927
307.2646078
306.9863734
306.7264222
306.4876319
306.2719228
306.0803041
305.9129586
305.7693565
305.6483878
305.5485055
305.4678714
305.4044954
305.356363
305.3215415
305.2982616
305.2849698
305.2803509
305.2832699
305.2929335
305.3087126
305.329974
305.3562265
305.3870298
305.4219791
305.4607146
305.5029524
305.5485347
305.597485
305.6500555
305.7067483
305.7682972
305.8355995
305.9095916
305.9910818
306.0805567
306.1779925
306.282699
306.3932257
306.5073454
306.6221243
306.7340695
306.8393369
306.9339755
307.01418
307.0765333
307.117864
307.1357426
307.131105
307.1024508
307.0505702
306.9771914
306.8848252
306.7765941
306.6560467
306.5269654
306.3931756
306.2583642
306.1259172
305.9987856
305.8793871
305.7695485
305.670491
305.5828553
305.5067578
305.4418715
305.3875222
305.3427886
305.306598
305.277812
305.2552963
305.2379744
305.2248652
305.2151038
305.2079513
305.2027934
305.1991322
305.1965739
305.1948139
305.1936219
305.1928271
305.1923054
305.1919685
305.1917547
305.1916216
305.1915406
305.1914928
305.1914658
305.1914514
305.1914446
305.191442
305.1914415
305.1914387
305.1914011
305.2172889
305.220537
305.2271746
305.2377246
305.2529228
305.2737665
305.3015202
305.3377194
305.3841631
305.4428908
305.5161377
305.6062667
305.7156743
305.8466737
306.0013578
306.1814483
306.3881408
306.6219545
306.8825996
307.1688723
307.4785859
307.8085446
308.1545625
308.5115258
308.8734967
309.2338572
309.5854874
309.9209803
310.2328876
310.5139864
310.7575507
310.9576178
311.1092396
311.2083399
311.2525179
311.2419818
311.1760423
311.0561075
310.8847883
310.665925
310.4043706
310.1058996
309.7771122
309.4252827
309.0581344
308.6835516
308.3092563
307.9424882
307.5897217
307.2564488
306.9470394
306.6646817
306.4113939
306.1880947
305.9947192
305.8303678
305.6934757
305.5819947
305.4935742
305.4257329
305.3760094
305.3420831
305.3218597
305.313517
305.3154688
305.3264344
305.345602
305.3719666
305.4048012
305.4434942
305.4875473
305.5366041
305.5905072
305.6493688
305.7136384
305.7841435
305.8620787
305.9489279
306.0463096
306.155747
306.278389
306.4147198
306.5643022
306.7255962
306.8958867
307.0713355
307.2471535
307.4178714
307.5776751
307.7207657
307.841707
307.9357366
307.9985277
308.0264965
308.0220369
307.9826199
307.9095243
307.8052954
307.6735228
307.5186154
307.3455638
307.1596947
306.9664233
306.771011
306.5783409
306.392723
306.2177444
306.0561722
305.9099159
305.7800483
305.6668739
305.5700348
305.4886446
305.4214318
305.3668796
305.3233529
305.2892039
305.2628553
305.2428579
305.2279267
305.2169573
305.2090267
305.2033836
305.1994312
305.196706
305.1948561
305.1936198
305.1928066
305.1922801
305.1919449
305.1917353
305.1916071
305.1915306
305.1914866
305.1914627
305.1914509
305.1914462
305.1914451
305.1914425
305.1914051
305.2245412
305.2286117
305.2369355
305.2501335
305.2690908
305.2950012
305.3293717
305.3740225
305.4310744
305.5029164
305.5921496
305.7015028
305.8337227
305.9914394
306.177014
306.3923761
306.6388613
306.9170577
307.226673
307.5664286
307.9339882
308.3259197
308.7376931
309.1637115
309.597378
310.0312032
310.4569627
310.8659167
311.2490974
311.597655
311.9032385
312.1583958
312.3569601
312.4943186
312.5675028
312.5761253
312.5204911
312.4017221
312.2223891
311.9864069
311.6983901
311.3637799
310.9889654
310.5813356
310.1491957
309.7015257
309.2476119
308.7966079
308.3570947
307.9367016
307.5418267
307.1774697
306.8471716
306.5530448
306.2958744
306.0752733
305.8898759
305.7375564
305.6156579
305.521219
305.451181
305.4025636
305.3725968
305.3588036
305.3590225
305.3712467
305.3944814
305.4271961
305.468354
305.5171411
305.5729876
305.6356282
305.7051908
305.7822909
305.8681006
305.9643592
306.0732927
306.1974305
306.3393099
306.5010897
306.684124
306.88856
307.113025
307.3544567
307.6081091
307.8677391
308.1259478
308.37463
308.6054757
308.8104647
308.9823087
309.1148157
309.2022163
309.240345
309.2333963
309.1775833
309.0749381
308.9290753
308.7449057
308.5283678
308.2861545
308.0254281
307.7535237
307.4776464
307.2045753
306.9403937
306.6902639
306.4582682
306.2473258
306.0591927
305.8945337
305.7530491
305.6336515
305.5346636
305.4540165
305.3894331
305.3385853
305.299219
305.2692444
305.2467936
305.2302502
305.2182555
305.209697
305.2036869
305.1995324
305.1967055
305.1948118
305.193563
305.1927525
305.192235
305.1919103
305.1917105
305.1915904
305.1915205
305.1914815
305.1914613
305.1914522
305.1914491
305.1914458
305.1914081
305.2334206
305.2384659
305.2487828
305.2650999
305.2884643
305.3202825
305.3623212
305.4167026
305.4858847
305.5726189
305.6798799
305.8107674
305.9683798
306.1556671
306.3752692
306.62935
306.9194361
307.24627
307.6096818
308.0084846
308.440389
308.9019343
309.3884327
309.8939265
310.4111691
310.9316529
311.445712
311.9427388
312.411535
312.8407918
313.2196733
313.53848
313.7893323
313.966708
314.067713
314.0921445
314.0431137
313.9215109
313.7312525
313.4775823
313.1649884
312.7981026
312.382147
311.9234172
311.4295977
310.9097891
310.3742268
309.8337579
309.2991998
308.7807141
308.2872901
307.8263845
307.4037209
307.0232305
306.6871057
306.3959404
306.1489354
305.944149
305.7787767
305.6494399
305.5524646
305.4841278
305.440855
305.4193599
305.4167278
305.4300337
305.4579937
305.4984374
305.5499273
305.611435
305.6823882
305.7627751
305.8532705
305.9553461
306.0713161
306.204271
306.357867
306.5359679
306.7421352
306.979028
307.2478026
307.5476082
307.8752649
308.2251842
308.5895504
308.9587398
309.3219151
309.6677142
309.9849437
310.2632045
310.4934004
310.6681175
310.7797902
310.8254825
310.8108093
310.7308024
310.5885968
310.389108
310.1387158
309.8449942
309.5164391
309.1621793
308.791657
308.4142807
308.039061
307.6742522
307.3270312
307.0032429
306.7072378
306.4418192
306.2082967
306.0066194
305.8355915
305.6931313
305.5765426
305.4827733
305.4086419
305.3510229
305.3069846
305.2738815
305.2494051
305.2316005
305.2188571
305.2098816
305.2036598
305.1994147
305.1965636
305.1946786
305.1934521
305.1926668
305.1921724
305.1918668
305.1916819
305.1915729
305.1915109
305.1914776
305.1914613
305.1914545
305.1914493
305.1914109
305.2440407
305.2502093
305.2628169
305.2827041
305.3110863
305.3495899
305.4002476
305.4654882
305.5481084
305.6512203
305.7781694
305.9324239
306.1174396
306.3365077
306.5925964
306.8881957
307.2251726
307.6046418
308.0268487
308.4910575
308.9954314
309.5368909
310.1109453
310.7115039
311.3306917
311.9587248
312.5839073
313.1928223
313.7707703
314.3024428
314.7728066
315.1682265
315.4777446
315.6941872
315.8147525
315.8409475
315.7810166
315.6362361
315.4162587
315.130272
314.7842139
314.3822898
313.9277602
313.4241309
312.8763208
312.2914445
311.6789986
311.050447
310.4183901
309.7955866
309.1940545
308.6243725
308.0952203
307.6131402
307.1824817
306.8054854
306.4824736
306.2121201
305.991774
305.8178163
305.6860195
305.5918843
305.5309251
305.4988897
305.4919035
305.5059972
305.5392957
305.5890357
305.6532306
305.7306726
305.8209323
305.9245238
306.0430677
306.1793911
306.3374975
306.5223468
306.7394214
306.994097
307.2908303
307.6322954
308.0186132
308.4468037
308.9105615
309.4004036
309.9041712
310.4078079
310.8962989
311.3546385
311.7687099
312.1259917
312.4160579
312.6309019
312.7607494
312.8076969
312.776635
312.6623097
312.4693499
312.2041021
311.8743837
311.4892774
311.0589226
310.594275
310.1068146
309.6081902
309.1098089
308.6223925
308.1555411
307.7173485
307.3141134
306.9501829
306.6279447
306.3479388
306.1090874
305.9090142
305.7443994
305.6113303
305.5056215
305.4230819
305.3597224
305.3118991
305.2764003
305.250482
305.2318662
305.2187109
305.209563
305.2033026
305.199086
305.1962906
305.1944666
305.1932954
305.1925558
305.1920969
305.1918176
305.1916515
305.1915557
305.1915027
305.1914752
305.1914624
305.1914541
305.1914144
305.25648
305.2639113
305.2790858
305.3029548
305.3369016
305.3827703
305.4428554
305.5198853
305.6169872
305.7376264
305.8855173
306.0645088
306.278452
306.5310601
306.8257731
307.1656343
307.5531817
307.9903483
308.4783549
309.0175702
309.6073086
310.2455454
310.9285392
311.6503907
312.4025887
313.1736403
313.9489092
314.7107619
315.4390755
316.1121117
316.7077585
317.2053113
317.5877827
317.8441208
317.9706484
317.9720919
317.8643475
317.6473677
317.3487238
316.9853271
316.5694052
316.1076517
315.6020601
315.0518879
314.4562451
313.8165434
313.1380466
312.4301477
311.705557
310.9788983
310.2652177
309.5787124
308.9318055
308.334569
307.7944464
307.3162052
306.902065
306.551954
306.2638615
306.0342568
305.8585381
305.7314759
305.6476119
305.601585
305.58837
305.6027894
305.6420628
305.7029164
305.7826907
305.8801015
305.9951224
306.1292178
306.2855217
306.4688729
306.6856138
306.9430945
307.2488903
307.6097761
308.0305254
308.5127737
309.0541479
309.647813
310.2825371
310.9432738
311.6121728
312.2698532
312.8967498
313.4743494
313.9861815
314.4184877
314.7605557
315.0047352
315.1391294
315.1767387
315.116655
314.9558631
314.700751
314.3590209
313.9396399
313.4527753
312.9097161
312.3227496
311.7049628
311.0699415
310.4313605
309.8024829
309.1956082
308.6215291
308.0890637
307.6047273
307.1725917
306.7943244
306.469387
306.1953904
305.9685324
305.7840565
305.6366875
305.5210095
305.4317685
305.364093
305.3136349
305.2766403
305.2499642
305.2310427
305.2178389
305.208773
305.2026475
305.1985745
305.1959091
305.1941927
305.1931054
305.1924282
305.1920141
305.1917662
305.1916215
305.1915398
305.191496
305.191474
305.1914611
305.1914193
305.270768
305.2795857
305.2975694
305.3257748
305.3657451
305.4195323
305.489681
305.5792071
305.6915595
305.8305582
306.0003088
306.2050996
306.4492932
306.7372242
307.0731153
307.4610129
307.9047342
308.4078023
308.9733278
309.6037895
310.3006647
311.0638853
311.8911225
312.7769703
313.712137
314.6827794
315.6701458
316.6506779
317.5965713
318.476702
319.2580354
319.9080894
320.398687
320.7099096
320.8327302
320.7814199
320.5635971
320.1936486
319.722462
319.1861939
318.6130992
318.0203602
317.4136975
316.789093
316.1369237
315.4474147
314.7153953
313.9427549
313.1383761
312.3164049
311.493912
310.6886807
309.9174653
309.1947997
308.5322984
307.9383445
307.4180659
306.9735226
306.6040534
306.3067392
306.0769398
305.9088563
305.7960693
305.7320074
305.7103217
305.7244696
305.7704283
305.8445727
305.943497
306.066058
306.2130538
306.3875148
306.5948448
306.8426823
307.140376
307.4980407
307.925267
308.4295586
309.014702
309.6794389
310.4166687
311.2133495
312.0511433
312.9077076
313.7584138
314.5782114
315.3433615
316.0328291
316.6292165
317.1192127
317.4936185
317.7446902
317.863158
317.8762045
317.7706596
317.5501629
317.222681
316.7969159
316.2824278
315.6897481
315.0304826
314.3173725
313.5642655
312.785953
311.99784
311.2154488
310.4537862
309.7266366
309.0458722
308.4208778
307.8581785
307.3613202
306.9309706
306.5652463
306.2602119
306.0104509
305.809636
305.6510481
305.5280074
305.4342021
305.3639119
305.312135
305.2746351
305.2479264
305.2292162
305.2163226
305.207581
305.2017495
305.1979215
305.195449
305.1938777
305.1928958
305.1922929
305.1919298
305.191716
305.1915936
305.1915263
305.1914911
305.1914713
305.1914265
305.2868711
305.2971783
305.3181694
305.3509939
305.3973427
305.4594619
305.5401335
305.6426543
305.7708022
305.9287864
306.1211839
306.3528737
306.6289826
306.9548565
307.3360608
307.7784019
308.2879383
308.8709282
309.5336403
310.2819507
311.1206623
312.0525454
313.0771595
314.1895769
315.3791977
316.6288823
317.9145738
319.2054431
320.464413
321.6487826
322.7111536
323.6020759
324.2752422
324.693474
324.8319283
324.7152487
324.3252971
323.6938281
322.9085085
322.0396397
321.1473596
320.2753844
319.4472411
318.6639537
317.9077302
317.1514643
316.3699117
315.5476964
314.6820528
313.7814039
312.8619323
311.9438534
311.0482776
310.1949322
309.4007017
308.6788229
308.038562
307.4852386
307.0205012
306.6427966
306.3479771
306.129988
305.9815677
305.8949008
305.8621821
305.8753842
305.9289006
306.0190332
306.1416491
306.2961318
306.4847366
306.7128963
306.9892107
307.3249509
307.7329862
308.2261769
308.8153878
309.5072812
310.3023459
311.1935928
312.1661687
313.1980103
314.2614571
315.3255439
316.3585674
317.3305078
318.2149722
318.9904794
319.6410565
320.156218
320.5304115
320.7528015
320.8356405
320.7999027
320.630615
320.3376347
319.9302187
319.4175424
318.8090247
318.1146337
317.345201
316.5127169
315.6305504
314.7135186
313.7777414
312.8402497
311.9183527
311.0288086
310.186899
309.4055423
308.6945873
308.0604016
307.5057816
307.0301552
306.6300764
306.2998885
306.0324406
305.8197722
305.6537107
305.5263468
305.430376
305.3593129
305.3075935
305.2705891
305.244556
305.2265445
305.2142874
305.2060819
305.2006775
305.1971755
305.194943
305.1935431
305.1926803
305.1921582
305.1918486
305.1916696
305.1915693
305.1915156
305.191486
305.191437
305.3046837
305.3165586
305.3407044
305.378352
305.4313276
305.5020609
305.5935691
305.7094449
305.8538426
306.0314608
306.2475297
306.5078168
306.8186679
307.1870889
307.6208622
308.1286617
308.7201009
309.4056166
310.1960756
311.1020081
312.132422
313.2932407
314.5855482
316.0039371
317.5352528
319.1578853
320.8417083
322.5485612
324.2327716
325.8409415
327.3112059
328.5747806
329.5615161
330.2070596
330.4528786
330.3095793
329.7369396
328.7427033
327.4762964
326.0592298
324.6016374
323.1983142
321.9194033
320.7953218
319.8121149
318.9226257
318.068639
317.2016275
316.2932952
315.3363543
314.3399294
313.3234847
312.3113629
311.3286569
310.3984329
309.5400555
308.7683227
308.093167
307.5197614
307.0489253
306.6777637
306.400467
306.2091927
306.094947
306.0484065
306.0600045
306.1222531
306.2318191
306.3840123
306.5793562
306.8224486
307.1221764
307.491349
307.9455641
308.5012903
309.1733596
309.9720945
310.900512
311.9522861
313.1108878
314.3501392
315.6361537
316.930335
318.1928749
319.386121
320.4772875
321.4402067
322.2560843
322.9134202
323.4073448
323.7348157
323.8900684
323.9150049
323.8004214
323.549033
323.1726702
322.6814219
322.0843575
321.3899919
320.6067493
319.7434848
318.8100435
317.8177912
316.7800107
315.7120538
314.6311876
313.5560947
312.5060203
311.4996553
310.5539134
309.6827995
308.8965618
308.2012592
307.5987302
307.0869545
306.6607523
306.3126318
306.0336579
305.8142487
305.6448413
305.5163962
305.4207376
305.3507438
305.3004141
305.2648416
305.2401235
305.2232341
305.2118847
305.204383
305.1995054
305.1963857
305.194423
305.1932089
305.192471
305.1920311
305.1917746
305.1916292
305.19155
305.1915068
305.1914519
305.3240218
305.3375164
305.3649127
305.4075135
305.4672736
305.5468107
305.6494005
305.7789911
305.9402307
306.1385127
306.3800514
306.6720027
307.0226406
307.4415824
307.9400259
308.5309211
309.2289576
310.0502198
311.0113567
312.128164
313.4136211
314.8756215
316.514815
318.3229717
320.282194
322.3650267
324.5353442
326.7496894
328.9580721
331.1025847
333.1138046
334.9095158
336.3981233
337.4848136
338.0597243
338.0369003
337.3999596
336.0179379
334.1367284
331.9489267
329.6217806
327.3293604
325.2325925
323.442175
321.98637
320.8088001
319.8050691
318.8701264
317.9275009
316.9370119
315.8895031
314.7972604
313.6847975
312.5816794
311.5175579
310.5190383
309.6078893
308.8001791
308.1060493
307.5299514
307.0712468
306.7250878
306.4834865
306.3364695
306.2732388
306.2827305
306.3553925
306.4888934
306.678378
306.9264045
307.2410635
307.6358956
308.1288358
308.740055
309.4888677
310.3900735
311.4501598
312.6642575
314.0145488
315.4705293
316.9912128
318.5289393
320.0340565
321.4595657
322.7649084
323.918388
324.8981186
325.6917309
326.2952714
326.7116096
326.9338955
326.9996607
326.9262678
326.7067981
326.3566942
325.8888359
325.3136905
324.6397586
323.8740258
323.0225134
322.090978
321.0857309
320.0145168
318.8873066
317.7168453
316.5188813
315.3119756
314.1167883
312.9548909
311.8472507
310.8126289
309.8661737
309.0184525
308.2750385
307.6365874
307.0994399
306.6565519
306.2985407
306.0147069
305.7939312
305.6253914
305.4990771
305.4061102
305.3388981
305.2911537
305.2578222
305.2349483
305.219515
305.2092751
305.2025932
305.1983047
305.1955976
305.1939171
305.1928917
305.1922775
305.191917
305.1917109
305.1915971
305.1915355
305.1914727
305.3446246
305.3597671
305.3904659
305.4380944
305.5047463
305.593259
305.7072367
305.851113
306.030251
306.2510899
306.5213523
306.8503223
307.2491892
307.7314179
308.3130605
309.0128678
309.8520065
310.8531746
312.0389622
313.4294679
315.0394407
316.8754542
318.9337869
321.1995348
323.6471387
326.2420969
328.9434285
331.706382
334.48406
337.2252923
339.8681242
342.3349877
344.5313408
346.3492917
347.6363064
348.1226091
347.7244205
346.1020281
343.5824628
340.4820365
336.9926503
333.4024443
329.9938448
327.0365922
324.6910126
322.936821
321.6176703
320.5410805
319.5481979
318.5388508
317.4673301
316.3277245
315.1388182
313.932085
312.743254
311.606852
310.5529265
309.6052574
308.7805639
308.0884113
307.5316627
307.1073767
306.8080528
306.6231015
306.5404378
306.5476713
306.633213
306.7966041
307.0335142
307.3497453
307.7582541
308.2784137
308.9337883
309.7484832
310.7425622
311.9270777
313.2997066
314.8421072
316.5195985
318.2834528
320.0755313
321.8343865
323.5015697
325.0269041
326.3718955
327.5110393
328.4313058
329.1303527
329.614331
329.8804834
329.9674424
329.9083195
329.6958918
329.3499238
328.8877444
328.3233033
327.6673099
326.9274834
326.108921
325.214671
324.2465564
323.2062179
322.0963312
320.9218183
319.6908449
318.415558
317.112402
315.8017577
314.5068879
313.2522697
312.0615601
310.9555585
309.950535
309.0572136
308.2804161
307.6193582
307.0685549
306.6190035
306.2594333
305.9774681
305.7606033
305.5969497
305.475735
305.387586
305.3246292
305.2804568
305.2500021
305.2293649
305.2156171
305.2066122
305.200812
305.1971378
305.194849
305.1934474
305.1926041
305.1921066
305.19182
305.1916605
305.1915744
305.191501
305.366163
305.3829643
305.4169916
305.4697033
305.5433704
305.6411269
305.7670438
305.9262693
306.1252391
306.3719673
306.6764276
307.051019
307.5110766
308.0753309
308.7661544
309.6093607
310.6332904
311.8669662
313.3372747
315.0654351
317.0633858
319.3309534
321.854645
324.6084888
327.5567157
330.6575693
333.8674883
337.1451984
340.4545757
343.762904
347.0330055
350.2167663
353.2501861
356.0510801
358.4970119
360.2992201
361.0393964
359.2148268
356.282578
352.2814007
347.3923821
342.2038461
336.9633524
332.1695855
328.3094541
325.517766
323.5982897
322.2339066
321.1356474
320.1042553
319.0306764
317.8741791
316.6383486
315.3517869
314.0544645
312.7887705
311.5939835
310.5030643
309.5409735
308.7240268
308.0600395
307.5491417
307.1851613
306.9574462
306.8529936
306.8584173
306.9604418
307.1616102
307.4591687
307.8636756
308.3944179
309.0774625
309.9416342
311.0129208
312.3081339
313.8289101
315.5576211
317.4561088
319.4677542
321.5228007
323.5460176
325.4650697
327.2177864
328.7569949
330.0524427
331.0901547
331.870093
332.4025241
332.6849814
332.7710659
332.6950945
332.4569879
332.0820758
331.5932521
331.0097143
330.346501
329.6145801
328.8209066
327.9686634
327.0577892
326.0858434
325.0491923
323.9444861
322.7702413
321.5282719
320.2250146
318.8725119
317.4886328
316.0964344
314.7225954
313.3951077
312.1406354
310.982039
309.9365173
309.014624
308.2200407
307.5502485
306.9977575
306.5515548
306.1985453
305.9248304
305.7167356
305.5615489
305.4479843
305.366405
305.3088602
305.2689898
305.2418482
305.2236905
305.2117498
305.2040298
305.199122
305.196054
305.1941683
305.1930294
305.1923544
305.1919633
305.1917441
305.191626
305.1915387
305.3882571
305.4067234
305.4441081
305.5019945
305.5829104
305.6904265
305.8293098
306.0057765
306.227853
306.5058513
306.8529522
307.2858545
307.8253902
308.4969224
309.3302565
310.3587388
311.6172471
313.1389571
314.951119
317.0705407
319.4998588
322.2257403
325.219744
328.4417963
331.8454181
335.3834447
339.0132748
342.7015079
346.4276159
350.1831341
353.9638777
357.7658539
361.587869
365.3995009
369.1532994
372.8242655
373.4060777
373.2523277
371.5802743
367.5142461
360.8652905
354.3384985
347.0080734
339.5409889
333.2797612
328.7992273
325.8717919
323.9949547
322.6895849
321.6078482
320.5429208
319.3973794
318.1465586
316.8089821
315.4254247
314.0450683
312.716785
311.4838909
310.3811614
309.4333479
308.6548076
308.0500913
307.615397
307.3407663
307.2128633
307.2178229
307.3414808
307.5907703
307.9659663
308.484117
309.1721448
310.0629125
311.1887147
312.5733558
314.2241671
316.1259836
318.2385434
320.4979282
322.8222354
325.1207224
327.3045567
329.2966847
331.0387057
332.4937934
333.6459802
334.4969124
335.0625431
335.3400783
335.4080345
335.2874739
334.9929564
334.5556237
334.0042625
333.3639689
332.655382
331.8944403
331.0923282
330.2553774
329.3851667
328.4789301
327.530338
326.5306913
325.4704852
324.3412333
323.1372741
321.8576762
320.5079102
319.1008462
317.6568366
316.2026097
314.7690052
313.3879226
312.0890575
310.8970522
309.8296021
308.8965241
308.0998791
307.4350915
306.8925143
306.4591282
306.1201454
305.8603675
305.6652203
305.5214553
305.4175459
305.3438349
305.292497
305.2573808
305.2337831
305.2182005
305.2080868
305.2016334
305.1975848
305.1950876
305.1935736
305.1926726
305.192148
305.1918523
305.1916931
305.191588
305.4105027
305.430653
305.4714672
305.5347283
305.6233545
305.7415735
305.8951857
306.0919688
306.3422247
306.6594641
307.0611856
307.5696464
308.2124291
309.0225051
310.0374129
311.2971702
312.8407049
314.7009742
316.8994973
319.4415629
322.3135795
325.4836567
328.9055935
332.5253924
336.2886879
340.1474601
344.0651004
348.0201702
352.0094215
356.0467784
360.1552672
364.3692002
368.7708641
373.4894188
378.8757947
352.8074939
347.1499982
347.9337701
348.5777913
348.7332978
354.839847
369.8432698
361.2755783
349.8500011
339.9239172
332.9349717
328.5231812
325.8675913
324.2205166
323.0369463
321.977326
320.8639624
319.6288355
318.2712847
316.8279142
315.3524953
313.9030856
312.5340536
311.2913107
310.2096472
309.3115914
308.6075847
308.0974049
307.7727436
307.6207549
307.6278172
307.7802387
308.0909597