/*--------------------------------*- C++ -*----------------------------------*\
| =========                 |                                                 |
| \\      /  F ield         | OpenFOAM: The Open Source CFD Toolbox           |
|  \\    /   O peration     | Version:  5.x                                   |
|   \\  /    A nd           | Web:      www.OpenFOAM.org                      |
|    \\/     M anipulation  |                                                 |
\*---------------------------------------------------------------------------*/
FoamFile
{
    version     2.0;
    format      ascii;
    class       volVectorField;
    location    "0.4";
    object      Urom;
}
// * * * * * * * * * * * * * * * * * * * * * * * * * * * * * * * * * * * * * //

dimensions      [0 1 -1 0 0 0 0];

internalField   nonuniform List<vector> 
17568
(
(17.2724 0.614881 0)
(13.1877 0.558485 0)
(20.2333 1.08262 0)
(9.51472 0.282801 0)
(20.154 1.35755 0)
(20.1095 0.789763 0)
(6.89598 0.0989256 0)
(18.9723 1.11462 0)
(20.9091 1.21403 0)
(20.0422 0.607003 0)
(5.47413 0.0074267 0)
(17.2271 0.806678 0)
(21.2593 1.14444 0)
(20.6989 1.0541 0)
(20.0314 0.482217 0)
(4.73795 -0.0200363 0)
(15.551 0.512487 0)
(20.9943 0.970029 0)
(21.3109 1.05482 0)
(20.5244 0.930578 0)
(20.0234 0.385015 0)
(4.3067 -0.0161168 0)
(14.1425 0.304415 0)
(20.3718 0.759836 0)
(21.6026 0.949874 0)
(21.0677 0.969091 0)
(20.4044 0.812618 0)
(20.017 0.308884 0)
(4.01627 -0.00757022 0)
(13.0003 0.189642 0)
(19.6106 0.580836 0)
(21.6159 0.811843 0)
(21.4299 0.888862 0)
(20.8653 0.882814 0)
(20.3123 0.702646 0)
(20.0125 0.25002 0)
(3.79175 -0.00166961 0)
(12.0867 0.13302 0)
(18.8219 0.455611 0)
(21.4506 0.679712 0)
(21.6152 0.784134 0)
(21.2012 0.821433 0)
(20.703 0.798786 0)
(20.2415 0.604438 0)
(20.0094 0.204603 0)
(3.60114 0.0012084 0)
(11.3506 0.104183 0)
(18.0624 0.371483 0)
(21.1805 0.578642 0)
(21.6825 0.68163 0)
(21.3994 0.736926 0)
(21.0094 0.757991 0)
(20.5695 0.719637 0)
(20.1878 0.518548 0)
(20.0073 0.16931 0)
(3.43391 0.00214251 0)
(10.7443 0.0870239 0)
(17.3538 0.311232 0)
(20.8536 0.505639 0)
(21.6752 0.60082 0)
(21.5122 0.654001 0)
(21.1985 0.690162 0)
(20.8479 0.699934 0)
(20.4608 0.645471 0)
(20.1471 0.444421 0)
(20.0057 0.141546 0)
(3.28726 0.00217907 0)
(10.2326 0.0747082 0)
(16.7002 0.264915 0)
(20.4963 0.449535 0)
(21.6203 0.542423 0)
(21.5782 0.586435 0)
(21.3122 0.622771 0)
(21.0282 0.646654 0)
(20.7106 0.645488 0)
(20.373 0.576285 0)
(20.1161 0.381077 0)
(20.0045 0.119393 0)
(3.15928 0.00195035 0)
(9.79274 0.0647205 0)
(16.0999 0.227883 0)
(20.1218 0.402934 0)
(21.5319 0.497982 0)
(21.618 0.536928 0)
(21.3885 0.565237 0)
(21.1388 0.592064 0)
(20.8822 0.60525 0)
(20.5946 0.59344 0)
(20.3024 0.512377 0)
(20.0926 0.327279 0)
(20.0036 0.101453 0)
(3.04751 0.00170482 0)
(9.41021 0.0563243 0)
(15.5497 0.197639 0)
(19.7383 0.362571 0)
(21.4156 0.46071 0)
(21.6404 0.499792 0)
(21.4472 0.521049 0)
(21.2146 0.543345 0)
(20.9901 0.561257 0)
(20.7563 0.565362 0)
(20.4969 0.543483 0)
(20.2459 0.453998 0)
(20.0744 0.281741 0)
(20.0029 0.0867265 0)
(2.9494 0.00149218 0)
(9.07452 0.049299 0)
(15.0469 0.17265 0)
(19.3524 0.327003 0)
(21.2743 0.427493 0)
(21.6474 0.469179 0)
(21.4968 0.487332 0)
(21.2749 0.503639 0)
(21.0648 0.520604 0)
(20.8616 0.530404 0)
(20.6478 0.526902 0)
(20.415 0.495679 0)
(20.2007 0.401243 0)
(20.0603 0.243231 0)
(20.0024 0.0744986 0)
(2.86271 0.00130464 0)
(8.77777 0.0434468 0)
(14.5879 0.151881 0)
(18.9701 0.295472 0)
(21.1114 0.397137 0)
(21.6384 0.442086 0)
(21.5395 0.459719 0)
(21.3276 0.472169 0)
(21.1246 0.485531 0)
(20.9353 0.497049 0)
(20.7502 0.49992 0)
(20.5543 0.489758 0)
(20.3466 0.450239 0)
(20.1645 0.354029 0)
(20.0492 0.210605 0)
(20.002 0.0642501 0)
(2.78568 0.00112942 0)
(8.51364 0.0385314 0)
(14.1693 0.134513 0)
(18.5962 0.267503 0)
(20.9314 0.36912 0)
(21.6137 0.417321 0)
(21.5751 0.43557 0)
(21.3757 0.44613 0)
(21.1769 0.456416 0)
(20.9944 0.466757 0)
(20.8226 0.47302 0)
(20.6531 0.470014 0)
(20.4739 0.453806 0)
(20.2897 0.407402 0)
(20.1355 0.312081 0)
(20.0405 0.18286 0)
(20.0016 0.0555921 0)
(2.71704 0.000963971 0)
(8.27731 0.0343311 0)
(13.7871 0.119845 0)
(18.234 0.242691 0)
(20.738 0.343182 0)
(21.5737 0.394337 0)
(21.6029 0.413763 0)
(21.4199 0.423376 0)
(21.2245 0.431821 0)
(21.0461 0.440302 0)
(20.881 0.447419 0)
(20.7244 0.448746 0)
(20.5686 0.440729 0)
(20.4049 0.418992 0)
(20.2426 0.367366 0)
(20.1121 0.274993 0)
(20.0335 0.159145 0)
(20.0013 0.0482265 0)
(2.65576 0.000813159 0)
(8.06497 0.0306732 0)
(13.438 0.107298 0)
(17.8857 0.220634 0)
(20.5352 0.319153 0)
(21.5198 0.37281 0)
(21.6231 0.393749 0)
(21.46 0.4029 0)
(21.2685 0.410168 0)
(21.0929 0.417297 0)
(20.9322 0.423824 0)
(20.7818 0.427552 0)
(20.6383 0.424393 0)
(20.4947 0.412058 0)
(20.3458 0.385359 0)
(20.2037 0.330249 0)
(20.0932 0.242284 0)
(20.0277 0.138768 0)
(20.0011 0.0419204 0)
(2.60109 0.000665448 0)
(7.87367 0.0274377 0)
(13.1185 0.09641 0)
(17.5525 0.200938 0)
(20.3261 0.296857 0)
(21.4538 0.352533 0)
(21.6355 0.375155 0)
(21.4964 0.384206 0)
(21.3093 0.390575 0)
(21.1358 0.396781 0)
(20.9782 0.402546 0)
(20.8323 0.406908 0)
(20.6946 0.407211 0)
(20.5626 0.400103 0)
(20.4302 0.383996 0)
(20.2954 0.353021 0)
(20.1713 0.296087 0)
(20.0779 0.213453 0)
(20.0233 0.121168 0)
(20.0009 0.036489 0)
(2.5525 0.000523208 0)
(7.70102 0.0245176 0)
(12.8262 0.0868244 0)
(17.2357 0.183238 0)
(20.1134 0.276113 0)
(21.3768 0.33333 0)
(21.6408 0.357703 0)
(21.5295 0.366945 0)
(21.3478 0.372616 0)
(21.1756 0.378047 0)
(21.0203 0.383228 0)
(20.8778 0.387476 0)
(20.7442 0.389509 0)
(20.6179 0.386509 0)
(20.496 0.375993 0)
(20.374 0.356561 0)
(20.2525 0.322121 0)
(20.1446 0.264821 0)
(20.0654 0.188019 0)
(20.0195 0.105888 0)
(20.0008 0.031784 0)
(2.50948 0.000333943 0)
(7.54523 0.0218477 0)
(12.5582 0.0782618 0)
(16.9352 0.167228 0)
(19.8997 0.256734 0)
(21.2906 0.315049 0)
(21.6388 0.341168 0)
(21.5592 0.350836 0)
(21.3841 0.355996 0)
(21.2131 0.360729 0)
(21.0592 0.365394 0)
(20.9192 0.369416 0)
(20.7893 0.372022 0)
(20.6665 0.371642 0)
(20.5499 0.36558 0)
(20.4373 0.352146 0)
(20.3251 0.329802 0)
(20.2161 0.292792 0)
(20.1223 0.236328 0)
(20.0552 0.165544 0)
(20.0164 0.0925544 0)
(20.0007 0.0276845 0)
(2.47188 0.000197182 0)
(7.40476 0.0193396 0)
(12.3128 0.0704952 0)
(16.6512 0.152615 0)
(19.687 0.238558 0)
(21.1965 0.297539 0)
(21.63 0.325362 0)
(21.5857 0.335642 0)
(21.4189 0.34047 0)
(21.2488 0.344592 0)
(21.0957 0.348745 0)
(20.9574 0.352524 0)
(20.8302 0.355285 0)
(20.7108 0.356158 0)
(20.5975 0.353362 0)
(20.4897 0.344549 0)
(20.3854 0.32862 0)
(20.2825 0.303788 0)
(20.1852 0.265125 0)
(20.104 0.210434 0)
(20.0467 0.145639 0)
(20.0139 0.0808612 0)
(20.0006 0.0240921 0)
(2.43933 2.89047e-05 0)
(7.27875 0.0169112 0)
(12.088 0.0633699 0)
(16.3839 0.139175 0)
(19.4769 0.221406 0)
(21.0958 0.280684 0)
(21.615 0.310109 0)
(21.6092 0.321167 0)
(21.4522 0.325822 0)
(21.2833 0.329434 0)
(21.1305 0.333093 0)
(20.9931 0.336586 0)
(20.8678 0.339374 0)
(20.7511 0.340803 0)
(20.6409 0.339885 0)
(20.5361 0.334748 0)
(20.4362 0.32352 0)
(20.3396 0.305463 0)
(20.2455 0.27861 0)
(20.1591 0.239168 0)
(20.0887 0.186938 0)
(20.0397 0.127956 0)
(20.0119 0.0705547 0)
(20.0005 0.0209257 0)
(2.4122 -0.000189236 0)
(7.16589 0.0145993 0)
(11.8828 0.0566524 0)
(16.1327 0.126645 0)
(19.2709 0.205148 0)
(20.9901 0.264343 0)
(21.5941 0.29527 0)
(21.6295 0.30722 0)
(21.4842 0.311868 0)
(21.3169 0.315066 0)
(21.164 0.318281 0)
(21.027 0.321455 0)
(20.9028 0.324183 0)
(20.7883 0.325905 0)
(20.6809 0.325952 0)
(20.5786 0.323216 0)
(20.4813 0.315884 0)
(20.3886 0.302582 0)
(20.2993 0.282727 0)
(20.2137 0.25436 0)
(20.1369 0.214926 0)
(20.0759 0.165624 0)
(20.034 0.112192 0)
(20.0102 0.0614234 0)
(20.0004 0.0181185 0)
(2.39 -0.000398879 0)
(7.0666 0.0122349 0)
(11.6955 0.0502468 0)
(15.8977 0.114888 0)
(19.0701 0.189577 0)
(20.8806 0.248436 0)
(21.5678 0.280691 0)
(21.6468 0.293646 0)
(21.5152 0.298427 0)
(21.3499 0.301324 0)
(21.1966 0.30415 0)
(21.0597 0.307012 0)
(20.9362 0.309606 0)
(20.823 0.311487 0)
(20.7176 0.312092 0)
(20.6179 0.310726 0)
(20.5228 0.306189 0)
(20.4323 0.29686 0)
(20.3462 0.281804 0)
(20.2638 0.260472 0)
(20.1862 0.231116 0)
(20.1182 0.192358 0)
(20.0652 0.146274 0)
(20.0292 0.0980839 0)
(20.0088 0.0532901 0)
(20.0004 0.0156143 0)
(2.374 -0.000683002 0)
(6.9792 0.00981229 0)
(11.5265 0.0440025 0)
(15.6782 0.103603 0)
(18.876 0.174613 0)
(20.7686 0.232785 0)
(21.5366 0.266275 0)
(21.6611 0.280274 0)
(21.5452 0.285345 0)
(21.3823 0.288046 0)
(21.2288 0.290557 0)
(21.0916 0.293131 0)
(20.9682 0.295561 0)
(20.8558 0.297495 0)
(20.7518 0.298466 0)
(20.6542 0.29792 0)
(20.5614 0.295126 0)
(20.4727 0.288854 0)
(20.3886 0.277761 0)
(20.3086 0.261247 0)
(20.2326 0.238762 0)
(20.1624 0.208936 0)
(20.1025 0.171393 0)
(20.0563 0.12868 0)
(20.0252 0.085406 0)
(20.0076 0.0460056 0)
(20.0003 0.0133664 0)
(2.36299 -0.000948805 0)
(6.90622 0.00718202 0)
(11.3733 0.0377534 0)
(15.4753 0.0926782 0)
(18.6888 0.159949 0)
(20.6554 0.217363 0)
(21.5013 0.251847 0)
(21.6728 0.266982 0)
(21.5741 0.272456 0)
(21.4146 0.275084 0)
(21.2606 0.277352 0)
(21.1229 0.279689 0)
(20.9994 0.281952 0)
(20.8873 0.283873 0)
(20.7842 0.285078 0)
(20.688 0.285097 0)
(20.5972 0.283385 0)
(20.5104 0.279173 0)
(20.4278 0.271278 0)
(20.3493 0.258665 0)
(20.275 0.240967 0)
(20.2053 0.217661 0)
(20.1421 0.18785 0)
(20.089 0.151939 0)
(20.0488 0.112648 0)
(20.0218 0.073961 0)
(20.0066 0.0394429 0)
(20.0003 0.0113354 0)
(2.3607 -0.00143446 0)
(6.84386 0.00438796 0)
(11.2389 0.0313434 0)
(15.287 0.0817891 0)
(18.5105 0.145612 0)
(20.542 0.201824 0)
(21.4626 0.237349 0)
(21.6819 0.253594 0)
(21.6022 0.25962 0)
(21.4467 0.26228 0)
(21.2924 0.2644 0)
(21.1539 0.266553 0)
(21.03 0.268677 0)
(20.918 0.270555 0)
(20.8153 0.271901 0)
(20.72 0.272327 0)
(20.6306 0.271368 0)
(20.5457 0.26849 0)
(20.4645 0.262897 0)
(20.3872 0.253524 0)
(20.3141 0.239638 0)
(20.2452 0.221015 0)
(20.1814 0.197225 0)
(20.1246 0.167864 0)
(20.0777 0.133889 0)
(20.0425 0.0979949 0)
(20.0191 0.0635779 0)
(20.0058 0.0334943 0)
(20.0002 0.00948732 0)
(2.36331 -0.00180115 0)
(6.80036 0.00106179 0)
(11.1182 0.024497 0)
(15.1164 0.0709048 0)
(18.3406 0.131086 0)
(20.4298 0.186353 0)
(21.4211 0.222507 0)
(21.6887 0.239989 0)
(21.6295 0.246664 0)
(21.4788 0.249494 0)
(21.3242 0.251549 0)
(21.1847 0.253596 0)
(21.0602 0.255623 0)
(20.9481 0.257466 0)
(20.8456 0.258897 0)
(20.7508 0.259613 0)
(20.6623 0.259224 0)
(20.5787 0.25728 0)
(20.4991 0.253249 0)
(20.423 0.246342 0)
(20.3508 0.235663 0)
(20.2826 0.220738 0)
(20.219 0.201441 0)
(20.1606 0.177498 0)
(20.1095 0.148957 0)
(20.0681 0.117129 0)
(20.0372 0.0845585 0)
(20.0168 0.0541076 0)
(20.0051 0.028067 0)
(20.0002 0.00779028 0)
(2.38096 -0.00275133 0)
(6.76482 -0.00256537 0)
(11.0209 0.0170763 0)
(14.9592 0.0593468 0)
(18.1817 0.116465 0)
(20.3194 0.170333 0)
(21.3777 0.207336 0)
(21.6935 0.225986 0)
(21.6561 0.233443 0)
(21.511 0.236552 0)
(21.3562 0.238661 0)
(21.2157 0.240678 0)
(21.0904 0.24267 0)
(20.9777 0.244508 0)
(20.8752 0.246009 0)
(20.7807 0.24694 0)
(20.6928 0.246986 0)
(20.61 0.245762 0)
(20.5317 0.242839 0)
(20.4569 0.237685 0)
(20.3855 0.229557 0)
(20.3179 0.217755 0)
(20.2545 0.202016 0)
(20.1956 0.182292 0)
(20.1425 0.158509 0)
(20.0967 0.131093 0)
(20.06 0.101544 0)
(20.0329 0.0721863 0)
(20.0148 0.0454202 0)
(20.0046 0.0230712 0)
(20.0002 0.00622604 0)
(2.40219 -0.0033146 0)
(6.76007 -0.00759256 0)
(10.9332 0.00868569 0)
(14.8236 0.0472844 0)
(18.032 0.10094 0)
(20.213 0.153865 0)
(21.3329 0.191373 0)
(21.6967 0.211375 0)
(21.6822 0.219758 0)
(21.5435 0.223311 0)
(21.3888 0.22557 0)
(21.2469 0.227653 0)
(21.1206 0.229685 0)
(21.0072 0.231571 0)
(20.9044 0.233162 0)
(20.8098 0.234273 0)
(20.7222 0.234661 0)
(20.6401 0.234008 0)
(20.5626 0.231942 0)
(20.4889 0.228055 0)
(20.4185 0.221826 0)
(20.3515 0.212594 0)
(20.2883 0.19986 0)
(20.2293 0.183518 0)
(20.1751 0.163608 0)
(20.1267 0.140271 0)
(20.0857 0.114218 0)
(20.053 0.0870134 0)
(20.0291 0.0607419 0)
(20.0132 0.037388 0)
(20.0041 0.0184564 0)
(20.0002 0.00476946 0)
(2.4539 -0.00538575 0)
(6.75571 -0.0128112 0)
(10.8813 -0.00134126 0)
(14.6987 0.0335906 0)
(17.8972 0.0847646 0)
(20.1099 0.136185 0)
(21.2881 0.174606 0)
(21.6986 0.195854 0)
(21.708 0.205382 0)
(21.5764 0.209536 0)
(21.4219 0.212112 0)
(21.2787 0.214367 0)
(21.151 0.21653 0)
(21.0368 0.218532 0)
(20.9333 0.220256 0)
(20.8386 0.221552 0)
(20.7511 0.222231 0)
(20.6694 0.222045 0)
(20.5924 0.220675 0)
(20.5195 0.217772 0)
(20.4499 0.212948 0)
(20.3837 0.205711 0)
(20.3208 0.195507 0)
(20.2617 0.182026 0)
(20.207 0.165284 0)
(20.1571 0.145421 0)
(20.113 0.12278 0)
(20.0762 0.098265 0)
(20.0472 0.0734265 0)
(20.026 0.0500868 0)
(20.0118 0.0299334 0)
(20.0037 0.0141477 0)
(20.0002 0.00339513 0)
(2.50796 -0.00633925 0)
(6.81119 -0.0226388 0)
(10.8285 -0.0129583 0)
(14.6055 0.0182451 0)
(17.7711 0.0664923 0)
(20.0142 0.117435 0)
(21.2435 0.156356 0)
(21.6999 0.179288 0)
(21.7338 0.190036 0)
(21.6099 0.195024 0)
(21.4558 0.19807 0)
(21.311 0.200644 0)
(21.1819 0.203046 0)
(21.0665 0.205254 0)
(20.9623 0.207177 0)
(20.8672 0.208693 0)
(20.7795 0.209654 0)
(20.6978 0.209867 0)
(20.6212 0.20908 0)
(20.5488 0.206989 0)
(20.48 0.203264 0)
(20.4144 0.197543 0)
(20.352 0.189377 0)
(20.2929 0.178348 0)
(20.2378 0.164301 0)
(20.187 0.147351 0)
(20.1412 0.12775 0)
(20.1012 0.106012 0)
(20.0681 0.0831612 0)
(20.0422 0.0606596 0)
(20.0234 0.0401296 0)
(20.0108 0.0229464 0)
(20.0034 0.0100768 0)
(20.0001 0.00209021 0)
(2.6148 -0.0134434 0)
(6.85022 -0.0291332 0)
(10.8427 -0.0299652 0)
(14.5152 -7.39575e-05 0)
(17.6671 0.0462421 0)
(19.9231 0.0962839 0)
(21.2013 0.136536 0)
(21.7009 0.161083 0)
(21.7597 0.17348 0)
(21.6443 0.179491 0)
(21.4907 0.18322 0)
(21.3443 0.186277 0)
(21.2134 0.189056 0)
(21.0967 0.191583 0)
(20.9915 0.193789 0)
(20.8957 0.195588 0)
(20.8077 0.196857 0)
(20.7259 0.197449 0)
(20.6494 0.197169 0)
(20.5772 0.195767 0)
(20.5089 0.192957 0)
(20.4439 0.188434 0)
(20.3819 0.181867 0)
(20.3232 0.172871 0)
(20.2678 0.161162 0)
(20.2164 0.146719 0)
(20.1693 0.129747 0)
(20.1273 0.1106 0)
(20.0911 0.0899354 0)
(20.0613 0.0688155 0)
(20.0381 0.0486239 0)
(20.0211 0.030744 0)
(20.0098 0.016327 0)
(20.0031 0.0062084 0)
(20.0001 0.000831658 0)
(2.80596 -0.00769275 0)
(7.0083 -0.0595586 0)
(10.8306 -0.0474021 0)
(14.48 -0.024055 0)
(17.5692 0.0221988 0)
(19.8444 0.072446 0)
(21.1608 0.11409 0)
(21.7028 0.140907 0)
(21.7864 0.155202 0)
(21.6798 0.162614 0)
(21.5268 0.16728 0)
(21.3786 0.171023 0)
(21.2458 0.174357 0)
(21.1274 0.177339 0)
(21.021 0.179944 0)
(20.9244 0.182107 0)
(20.8358 0.183743 0)
(20.7536 0.184732 0)
(20.677 0.184927 0)
(20.6051 0.184134 0)
(20.537 0.182112 0)
(20.4724 0.178592 0)
(20.4109 0.173305 0)
(20.3524 0.165955 0)
(20.2969 0.156235 0)
(20.2451 0.143992 0)
(20.1971 0.129316 0)
(20.1537 0.112487 0)
(20.1152 0.0939652 0)
(20.0823 0.0744936 0)
(20.0555 0.0551567 0)
(20.0346 0.0371958 0)
(20.0194 0.0218149 0)
(20.0091 0.0100168 0)
(20.0029 0.00246977 0)
(20.0001 -0.000401997 0)
(2.76512 -0.120083 0)
(7.14864 -0.0556239 0)
(10.9547 -0.08786 0)
(14.4309 -0.0517279 0)
(17.5078 -0.00829112 0)
(19.771 0.0444187 0)
(21.1259 0.0882251 0)
(21.7057 0.117932 0)
(21.814 0.134673 0)
(21.7166 0.143946 0)
(21.5643 0.149885 0)
(21.4141 0.154602 0)
(21.279 0.158695 0)
(21.1588 0.162318 0)
(21.051 0.165462 0)
(20.9533 0.168105 0)
(20.8639 0.170186 0)
(20.7814 0.171625 0)
(20.7044 0.172306 0)
(20.6324 0.172082 0)
(20.5644 0.170762 0)
(20.5 0.168119 0)
(20.4389 0.163912 0)
(20.3806 0.157903 0)
(20.3253 0.149839 0)
(20.2733 0.139509 0)
(20.2248 0.126872 0)
(20.1801 0.112112 0)
(20.1399 0.0955809 0)
(20.1047 0.0778189 0)
(20.0749 0.0596414 0)
(20.0506 0.0420779 0)
(20.0318 0.0262628 0)
(20.018 0.0132625 0)
(20.0085 0.00390536 0)
(20.0028 -0.00119619 0)
(20.0001 -0.00163162 0)
(7.44597 -0.223626 0)
(4.42705 -0.226709 0)
(11.0086 -0.119956 0)
(14.4833 -0.102926 0)
(17.4461 -0.0444231 0)
(19.7182 0.00889366 0)
(21.0947 0.0578785 0)
(21.7113 0.0910064 0)
(21.8432 0.111238 0)
(21.7552 0.122839 0)
(21.6036 0.130615 0)
(21.4512 0.136626 0)
(21.3136 0.141785 0)
(21.1912 0.146263 0)
(21.0817 0.150138 0)
(20.9826 0.153404 0)
(20.8922 0.156047 0)
(20.809 0.158014 0)
(20.7317 0.159227 0)
(20.6595 0.159575 0)
(20.5914 0.158914 0)
(20.5272 0.157061 0)
(20.4661 0.153805 0)
(20.4081 0.148937 0)
(20.3529 0.142255 0)
(20.3007 0.133559 0)
(20.2517 0.122732 0)
(20.2064 0.109834 0)
(20.1649 0.0951265 0)
(20.128 0.0790218 0)
(20.0957 0.0621401 0)
(20.0686 0.0452963 0)
(20.0465 0.0294812 0)
(20.0294 0.0157327 0)
(20.0168 0.00495596 0)
(20.0081 -0.00209289 0)
(20.0027 -0.00485066 0)
(20.0001 -0.00284352 0)
(11.2975 -0.285188 0)
(7.89674 -0.386132 0)
(2.02797 0.397546 0)
(5.82725 -0.263884 0)
(14.4953 -0.15828 0)
(17.4451 -0.104686 0)
(19.6706 -0.0336203 0)
(21.0736 0.0192017 0)
(21.7198 0.0593249 0)
(21.8747 0.0835012 0)
(21.796 0.0987142 0)
(21.645 0.108776 0)
(21.49 0.116679 0)
(21.3496 0.123233 0)
(21.2247 0.128884 0)
(21.1132 0.133712 0)
(21.0126 0.137797 0)
(20.921 0.141149 0)
(20.8369 0.143759 0)
(20.759 0.145583 0)
(20.6862 0.146546 0)
(20.6181 0.146542 0)
(20.5537 0.14543 0)
(20.4927 0.143042 0)
(20.4347 0.139188 0)
(20.3798 0.133692 0)
(20.3276 0.12639 0)
(20.2783 0.117149 0)
(20.2324 0.105935 0)
(20.19 0.0929029 0)
(20.1516 0.0783642 0)
(20.1175 0.0628051 0)
(20.088 0.0468676 0)
(20.0632 0.0313767 0)
(20.0433 0.017274 0)
(20.0277 0.00546638 0)
(20.016 -0.00321049 0)
(20.0078 -0.00807723 0)
(20.0026 -0.00845357 0)
(20.0001 -0.00401788 0)
(14.6557 -0.319907 0)
(11.4703 -0.463089 0)
(8.61826 -0.505143 0)
(0.747945 0.981627 0)
(3.71518 0.135749 0)
(7.00564 -0.513054 0)
(17.434 -0.175785 0)
(19.6545 -0.0999523 0)
(21.0579 -0.0275657 0)
(21.7333 0.0188335 0)
(21.9092 0.050737 0)
(21.8393 0.0701003 0)
(21.6888 0.0837795 0)
(21.5309 0.0940614 0)
(21.3872 0.102613 0)
(21.2596 0.109785 0)
(21.1458 0.115893 0)
(21.0433 0.121031 0)
(20.9503 0.125288 0)
(20.865 0.128691 0)
(20.7863 0.131239 0)
(20.713 0.132893 0)
(20.6444 0.133583 0)
(20.5799 0.133209 0)
(20.5188 0.131638 0)
(20.461 0.128718 0)
(20.4059 0.124286 0)
(20.3537 0.118201 0)
(20.3045 0.110343 0)
(20.2581 0.100639 0)
(20.2149 0.0891485 0)
(20.1755 0.0760836 0)
(20.1399 0.0618252 0)
(20.1085 0.0468856 0)
(20.0815 0.0319396 0)
(20.059 0.0177999 0)
(20.0407 0.00531879 0)
(20.0264 -0.00465428 0)
(20.0155 -0.0113701 0)
(20.0078 -0.0139782 0)
(20.0027 -0.0119454 0)
(20.0001 -0.00517191 0)
(17.4935 -0.331418 0)
(14.7421 -0.497075 0)
(11.7471 -0.644847 0)
(9.47408 -0.73555 0)
(0.342103 1.19218 0)
(2.22331 0.483462 0)
(4.94266 -0.248979 0)
(7.97331 -0.927562 0)
(19.6393 -0.181261 0)
(21.0563 -0.0968768 0)
(21.7511 -0.0306047 0)
(21.9471 0.00906846 0)
(21.8857 0.0361792 0)
(21.7352 0.0541949 0)
(21.5742 0.0681403 0)
(21.4267 0.0792409 0)
(21.2958 0.0885291 0)
(21.1793 0.0962886 0)
(21.0748 0.102806 0)
(20.9801 0.108213 0)
(20.8936 0.112608 0)
(20.8138 0.116031 0)
(20.7399 0.118488 0)
(20.6708 0.119947 0)
(20.6059 0.120344 0)
(20.5446 0.119586 0)
(20.4866 0.117553 0)
(20.4316 0.114109 0)
(20.3794 0.109125 0)
(20.33 0.102493 0)
(20.2833 0.094138 0)
(20.2397 0.0840611 0)
(20.1994 0.0723824 0)
(20.1627 0.0593866 0)
(20.1298 0.0454823 0)
(20.101 0.0312214 0)
(20.0762 0.017287 0)
(20.0556 0.0044403 0)
(20.0388 -0.00650569 0)
(20.0255 -0.0147831 0)
(20.0153 -0.0194167 0)
(20.0078 -0.0196953 0)
(20.0028 -0.0153751 0)
(20.0001 -0.00633438 0)
(19.6502 -0.328529 0)
(17.5133 -0.507955 0)
(14.82 -0.698514 0)
(12.2031 -0.895022 0)
(10.2614 -1.10006 0)
(0.180956 1.35793 0)
(1.30017 0.722568 0)
(3.27007 -0.0129928 0)
(5.90627 -0.740701 0)
(8.65106 -1.44662 0)
(21.0563 -0.183792 0)
(21.7748 -0.100808 0)
(21.9886 -0.0422132 0)
(21.9355 -0.00649851 0)
(21.7848 0.0190606 0)
(21.6201 0.0375833 0)
(21.4683 0.052437 0)
(21.3338 0.0644587 0)
(21.2143 0.0744524 0)
(21.1073 0.0827446 0)
(21.0107 0.0896282 0)
(20.9227 0.095264 0)
(20.8418 0.0997608 0)
(20.7668 0.103173 0)
(20.697 0.105512 0)
(20.6317 0.106753 0)
(20.57 0.10684 0)
(20.5119 0.105687 0)
(20.4567 0.10319 0)
(20.4045 0.0992364 0)
(20.3549 0.0937271 0)
(20.3081 0.0865922 0)
(20.2641 0.0778081 0)
(20.2232 0.0674304 0)
(20.1856 0.0556562 0)
(20.1515 0.0427988 0)
(20.1212 0.029309 0)
(20.0946 0.0157577 0)
(20.072 0.00280068 0)
(20.0531 -0.00881951 0)
(20.0376 -0.0183607 0)
(20.0253 -0.0247719 0)
(20.0155 -0.027206 0)
(20.0081 -0.0253065 0)
(20.0029 -0.0188256 0)
(20.0002 -0.00752406 0)
(21.0599 -0.321901 0)
(19.6306 -0.502031 0)
(17.4965 -0.709778 0)
(14.9687 -0.964173 0)
(12.6875 -1.23386 0)
(10.8186 -1.54138 0)
(0.0407349 1.42262 0)
(0.735325 0.876865 0)
(1.99654 0.171375 0)
(4.04491 -0.568632 0)
(6.59517 -1.33844 0)
(8.90367 -1.90861 0)
(21.7982 -0.190024 0)
(22.0328 -0.112346 0)
(21.9882 -0.0592299 0)
(21.8375 -0.0245863 0)
(21.6687 0.00129809 0)
(21.5121 0.0209865 0)
(21.3735 0.0368672 0)
(21.2507 0.0497575 0)
(21.141 0.0603947 0)
(21.0422 0.0691631 0)
(20.9524 0.0763677 0)
(20.8701 0.0821914 0)
(20.794 0.0867578 0)
(20.7234 0.0901264 0)
(20.6574 0.0923198 0)
(20.5954 0.0933215 0)
(20.5369 0.093082 0)
(20.4816 0.0915263 0)
(20.4291 0.0885689 0)
(20.3795 0.0841212 0)
(20.3325 0.0781185 0)
(20.2883 0.0705276 0)
(20.2468 0.0613698 0)
(20.2085 0.0507718 0)
(20.1735 0.038962 0)
(20.1419 0.0263026 0)
(20.114 0.0132623 0)
(20.0896 0.000400594 0)
(20.0689 -0.0116277 0)
(20.0515 -0.022139 0)
(20.0373 -0.0300529 0)
(20.0256 -0.0344327 0)
(20.016 -0.0348432 0)
(20.0085 -0.0309396 0)
(20.0031 -0.0223534 0)
(20.0002 -0.00875649 0)
(21.8157 -0.319385 0)
(21.0353 -0.488872 0)
(19.5681 -0.697771 0)
(17.4763 -0.968968 0)
(15.1262 -1.29591 0)
(13.0396 -1.61277 0)
(11.0114 -1.95292 0)
(-0.131702 1.40351 0)
(0.262562 0.954545 0)
(1.08571 0.26088 0)
(2.40358 -0.439499 0)
(4.61607 -1.21761 0)
(6.96663 -1.8221 0)
(9.21546 -2.19751 0)
(22.0753 -0.201884 0)
(22.0428 -0.129018 0)
(21.8927 -0.0784821 0)
(21.7199 -0.0432196 0)
(21.5584 -0.0162858 0)
(21.4151 0.00464172 0)
(21.2885 0.0214895 0)
(21.1759 0.0351614 0)
(21.0745 0.0463745 0)
(20.9827 0.0555615 0)
(20.8988 0.0630403 0)
(20.8215 0.0690122 0)
(20.7498 0.0736108 0)
(20.6831 0.076906 0)
(20.6205 0.0789289 0)
(20.5616 0.0796686 0)
(20.506 0.0790879 0)
(20.4534 0.0771243 0)
(20.4035 0.073712 0)
(20.3564 0.0687885 0)
(20.3119 0.0623231 0)
(20.2701 0.0543185 0)
(20.2313 0.0448508 0)
(20.1955 0.0340839 0)
(20.163 0.0222931 0)
(20.1339 0.00986349 0)
(20.1081 -0.00273674 0)
(20.0858 -0.0149437 0)
(20.0669 -0.0261485 0)
(20.051 -0.0352777 0)
(20.0376 -0.0413494 0)
(20.0263 -0.0438878 0)
(20.0167 -0.0424883 0)
(20.0091 -0.0366858 0)
(20.0034 -0.0260031 0)
(20.0002 -0.0100557 0)
(22.1093 -0.323625 0)
(21.8069 -0.477853 0)
(20.9674 -0.676076 0)
(19.4748 -0.939309 0)
(17.4065 -1.2865 0)
(15.2146 -1.64077 0)
(13.1396 -1.96322 0)
(11.0536 -2.2622 0)
(-0.31698 1.28681 0)
(-0.295253 0.927834 0)
(0.252322 0.213598 0)
(0.953495 -0.399047 0)
(2.71897 -1.08012 0)
(5.22721 -1.67912 0)
(7.57996 -2.06794 0)
(9.69759 -2.33949 0)
(22.0949 -0.217812 0)
(21.949 -0.147854 0)
(21.773 -0.0979364 0)
(21.6066 -0.0614988 0)
(21.4585 -0.0334079 0)
(21.3279 -0.0113671 0)
(21.2118 0.00634043 0)
(21.1079 0.0206958 0)
(21.0138 0.0324138 0)
(20.9281 0.0419603 0)
(20.8493 0.0496631 0)
(20.7765 0.0557413 0)
(20.7088 0.0603361 0)
(20.6456 0.0635274 0)
(20.5861 0.0653532 0)
(20.5302 0.0658112 0)
(20.4773 0.0648768 0)
(20.4272 0.0625025 0)
(20.3799 0.0586409 0)
(20.3352 0.0532628 0)
(20.2932 0.0463631 0)
(20.2539 0.03799 0)
(20.2175 0.0282549 0)
(20.1843 0.0173645 0)
(20.1541 0.00562458 0)
(20.1273 -0.0065799 0)
(20.1038 -0.0187681 0)
(20.0834 -0.0304134 0)
(20.0661 -0.0404738 0)
(20.0514 -0.0479561 0)
(20.0386 -0.0523789 0)
(20.0275 -0.0533169 0)
(20.0179 -0.0502563 0)
(20.0097 -0.0426164 0)
(20.0036 -0.0298439 0)
(20.0002 -0.0114417 0)
(22.1383 -0.333251 0)
(22.12 -0.472964 0)
(21.7588 -0.655043 0)
(20.859 -0.898553 0)
(19.3089 -1.22979 0)
(17.256 -1.6111 0)
(15.1608 -1.94236 0)
(13.005 -2.25843 0)
(11.2423 -2.43343 0)
(-0.471226 1.07275 0)
(-0.869273 0.784928 0)
(-0.700311 0.0475599 0)
(-0.465808 -0.487941 0)
(0.940944 -0.93962 0)
(3.64704 -1.45818 0)
(6.1431 -1.87749 0)
(8.30109 -2.19146 0)
(10.2336 -2.42912 0)
(22.0023 -0.235297 0)
(21.8262 -0.166773 0)
(21.6558 -0.116647 0)
(21.5032 -0.0790915 0)
(21.3684 -0.049972 0)
(21.249 -0.0269954 0)
(21.142 -0.00854598 0)
(21.0455 0.00639282 0)
(20.9578 0.0185416 0)
(20.8775 0.0283839 0)
(20.8034 0.0362617 0)
(20.7347 0.0424023 0)
(20.6706 0.0469548 0)
(20.6106 0.0500103 0)
(20.5542 0.0516123 0)
(20.5009 0.0517705 0)
(20.4506 0.0504701 0)
(20.4029 0.0476817 0)
(20.3581 0.0433822 0)
(20.3158 0.0375643 0)
(20.2762 0.0302629 0)
(20.2394 0.0215526 0)
(20.2055 0.0115849 0)
(20.1746 0.00059893 0)
(20.1469 -0.0110951 0)
(20.1223 -0.0230944 0)
(20.1009 -0.0349534 0)
(20.0825 -0.0456747 0)
(20.0666 -0.0542775 0)
(20.0527 -0.0603004 0)
(20.0404 -0.0633304 0)
(20.0293 -0.062853 0)
(20.0193 -0.0582436 0)
(20.0107 -0.0488361 0)
(20.004 -0.0339331 0)
(20.0002 -0.0129367 0)
(22.0472 -0.345432 0)
(22.1615 -0.473711 0)
(22.0963 -0.639917 0)
(21.6683 -0.859359 0)
(20.6803 -1.15886 0)
(19.0363 -1.52917 0)
(17.0187 -1.88575 0)
(14.9243 -2.20079 0)
(12.8856 -2.45993 0)
(11.5342 -2.52801 0)
(-0.568011 0.788185 0)
(-1.30556 0.565814 0)
(-1.56512 -0.170077 0)
(-1.69586 -0.62929 0)
(-0.585403 -0.790054 0)
(2.16032 -1.14571 0)
(4.89227 -1.61353 0)
(7.09507 -1.99058 0)
(9.06278 -2.27797 0)
(10.779 -2.49301 0)
(21.8761 -0.252435 0)
(21.7043 -0.184751 0)
(21.5482 -0.134294 0)
(21.4097 -0.0958819 0)
(21.2867 -0.065932 0)
(21.1769 -0.0422 0)
(21.0779 -0.0231353 0)
(20.9881 -0.00771272 0)
(20.9059 0.00478769 0)
(20.8305 0.0148627 0)
(20.7605 0.0228591 0)
(20.6956 0.0290166 0)
(20.6348 0.0334893 0)
(20.5778 0.0363757 0)
(20.5242 0.0377281 0)
(20.4735 0.0375673 0)
(20.4257 0.0358895 0)
(20.3806 0.0326862 0)
(20.338 0.0279533 0)
(20.2982 0.0217178 0)
(20.261 0.0140331 0)
(20.2267 0.00501156 0)
(20.1952 -0.00516562 0)
(20.1668 -0.0162511 0)
(20.1414 -0.027916 0)
(20.119 -0.0397859 0)
(20.0997 -0.0509183 0)
(20.083 -0.0603571 0)
(20.0682 -0.067677 0)
(20.0549 -0.0724998 0)
(20.0428 -0.0743468 0)
(20.0315 -0.0726089 0)
(20.0211 -0.0665789 0)
(20.0119 -0.0554329 0)
(20.0045 -0.0383338 0)
(20.0003 -0.0145649 0)
(21.9173 -0.35781 0)
(22.0742 -0.477654 0)
(22.155 -0.63088 0)
(22.0335 -0.827809 0)
(21.5158 -1.0916 0)
(20.3959 -1.42642 0)
(18.6669 -1.78651 0)
(16.6839 -2.10846 0)
(14.5727 -2.41153 0)
(12.8979 -2.56995 0)
(11.8322 -2.58662 0)
(-0.608714 0.463436 0)
(-1.53395 0.320948 0)
(-2.10412 -0.365924 0)
(-2.35602 -0.695207 0)
(-1.42663 -0.592469 0)
(0.829227 -0.731555 0)
(3.78105 -1.25017 0)
(6.14754 -1.72287 0)
(8.07802 -2.073 0)
(9.84706 -2.34558 0)
(11.285 -2.52935 0)
(21.7489 -0.268263 0)
(21.5918 -0.201397 0)
(21.4506 -0.150797 0)
(21.3247 -0.111823 0)
(21.2119 -0.0812538 0)
(21.1105 -0.0569409 0)
(21.0185 -0.03739 0)
(20.9346 -0.0215872 0)
(20.8576 -0.00881634 0)
(20.7865 0.00142338 0)
(20.7205 0.00948459 0)
(20.6589 0.0156092 0)
(20.6013 0.0199613 0)
(20.5471 0.0226454 0)
(20.4961 0.0237231 0)
(20.4479 0.023223 0)
(20.4026 0.0211593 0)
(20.3599 0.0175368 0)
(20.3198 0.012381 0)
(20.2823 0.00573539 0)
(20.2476 -0.00231504 0)
(20.2157 -0.0116326 0)
(20.1866 -0.0220251 0)
(20.1606 -0.0332262 0)
(20.1376 -0.0449286 0)
(20.1175 -0.0562443 0)
(20.1001 -0.0662515 0)
(20.0848 -0.0745663 0)
(20.0709 -0.0808558 0)
(20.0581 -0.0846987 0)
(20.046 -0.0855464 0)
(20.0344 -0.0827221 0)
(20.0234 -0.0753677 0)
(20.0133 -0.0625011 0)
(20.0052 -0.0431145 0)
(20.0003 -0.0163538 0)
(21.7845 -0.369068 0)
(21.9424 -0.482381 0)
(22.0752 -0.625499 0)
(22.1139 -0.804384 0)
(21.9178 -1.03574 0)
(21.2734 -1.3278 0)
(20.0024 -1.66068 0)
(18.2309 -1.98726 0)
(16.2137 -2.29967 0)
(14.2913 -2.54573 0)
(12.9544 -2.6243 0)
(12.0933 -2.60302 0)
(-0.600767 0.127652 0)
(-1.57235 0.0874357 0)
(-2.28639 -0.500966 0)
(-2.42403 -0.62441 0)
(-1.46685 -0.330158 0)
(-0.0466793 -0.263961 0)
(2.73403 -0.771156 0)
(5.40953 -1.37822 0)
(7.32528 -1.81494 0)
(9.04408 -2.14896 0)
(10.5692 -2.41229 0)
(11.6223 -2.50665 0)
(21.6306 -0.282444 0)
(21.4892 -0.216609 0)
(21.3615 -0.166134 0)
(21.2466 -0.12688 0)
(21.1429 -0.0959065 0)
(21.0489 -0.0711816 0)
(20.9632 -0.051275 0)
(20.8847 -0.0351967 0)
(20.8123 -0.022239 0)
(20.7453 -0.0119039 0)
(20.6828 -0.00383867 0)
(20.6245 0.0022054 0)
(20.5698 0.00639677 0)
(20.5184 0.00884435 0)
(20.4699 0.0096193 0)
(20.4243 0.00876288 0)
(20.3813 0.00629978 0)
(20.341 0.00225863 0)
(20.3033 -0.00332036 0)
(20.2683 -0.0103677 0)
(20.2359 -0.018777 0)
(20.2065 -0.0283994 0)
(20.18 -0.0390237 0)
(20.1564 -0.0504001 0)
(20.1359 -0.0616947 0)
(20.1179 -0.0720237 0)
(20.1021 -0.0810444 0)
(20.0878 -0.0884753 0)
(20.0747 -0.0939535 0)
(20.0622 -0.0970146 0)
(20.05 -0.0970652 0)
(20.038 -0.0933036 0)
(20.026 -0.0847221 0)
(20.015 -0.0701416 0)
(20.0059 -0.0483517 0)
(20.0003 -0.0183348 0)
(21.6605 -0.378705 0)
(21.805 -0.486422 0)
(21.9441 -0.621221 0)
(22.0453 -0.786392 0)
(22.0283 -0.991863 0)
(21.7295 -1.24465 0)
(20.9315 -1.53505 0)
(19.5277 -1.84378 0)
(17.7063 -2.1492 0)
(15.6973 -2.44927 0)
(14.1021 -2.60625 0)
(12.9848 -2.6283 0)
(12.2611 -2.54511 0)
(-0.545706 -0.190146 0)
(-1.46788 -0.124268 0)
(-2.19147 -0.571579 0)
(-2.14237 -0.43872 0)
(-1.1542 -0.0132579 0)
(-0.316364 0.156231 0)
(1.81346 -0.218391 0)
(4.67938 -0.953039 0)
(6.758 -1.52047 0)
(8.37073 -1.91424 0)
(9.91687 -2.25585 0)
(11.0625 -2.44064 0)
(11.7557 -2.37691 0)
(21.5227 -0.29494 0)
(21.3957 -0.230389 0)
(21.2798 -0.180315 0)
(21.1745 -0.141035 0)
(21.0789 -0.10986 0)
(20.9916 -0.0848858 0)
(20.9116 -0.0647554 0)
(20.838 -0.0485057 0)
(20.7698 -0.0354492 0)
(20.7065 -0.0250908 0)
(20.6474 -0.0170806 0)
(20.5921 -0.0111674 0)
(20.5402 -0.00718051 0)
(20.4914 -0.00500346 0)
(20.4455 -0.00455827 0)
(20.4023 -0.0057921 0)
(20.3618 -0.00866385 0)
(20.3238 -0.0131319 0)
(20.2886 -0.0191348 0)
(20.2561 -0.0265847 0)
(20.2262 -0.035365 0)
(20.1993 -0.04531 0)
(20.1753 -0.0562203 0)
(20.1543 -0.0673118 0)
(20.136 -0.0777397 0)
(20.12 -0.0872006 0)
(20.1055 -0.0954602 0)
(20.0922 -0.102215 0)
(20.0796 -0.107082 0)
(20.0674 -0.109575 0)
(20.0549 -0.10901 0)
(20.0421 -0.104469 0)
(20.0293 -0.0947582 0)
(20.0171 -0.0784659 0)
(20.0068 -0.0541328 0)