/*--------------------------------*- C++ -*----------------------------------*\
| =========                 |                                                 |
| \\      /  F ield         | OpenFOAM: The Open Source CFD Toolbox           |
|  \\    /   O peration     | Version:  5.x                                   |
|   \\  /    A nd           | Web:      www.OpenFOAM.org                      |
|    \\/     M anipulation  |                                                 |
\*---------------------------------------------------------------------------*/
FoamFile
{
    version     2.0;
    format      ascii;
    class       volVectorField;
    location    "0.2";
    object      Urom;
}
// * * * * * * * * * * * * * * * * * * * * * * * * * * * * * * * * * * * * * //

dimensions      [0 1 -1 0 0 0 0];

internalField   nonuniform List<vector> 
17530
(
(0.179721 0.00247098 0)
(0.114738 0.00315967 0)
(0.475338 0.0282559 0)
(0.0417479 0.00375942 0)
(0.328745 0.0317116 0)
(0.868951 0.0702876 0)
(-0.0343527 0.00386021 0)
(0.171915 0.034249 0)
(0.675293 0.0766038 0)
(1.33337 0.122856 0)
(-0.10899 0.00357311 0)
(0.013418 0.034355 0)
(0.474543 0.0803829 0)
(1.11594 0.130898 0)
(1.78065 0.181959 0)
(-0.183069 0.00345544 0)
(-0.142105 0.0336334 0)
(0.274332 0.0799352 0)
(0.893281 0.13553 0)
(1.55707 0.191043 0)
(2.16177 0.243958 0)
(-0.260231 0.00372734 0)
(-0.298455 0.0341097 0)
(0.0783368 0.078535 0)
(0.669214 0.134475 0)
(1.32293 0.197531 0)
(1.94374 0.254869 0)
(2.47407 0.305849 0)
(-0.339677 0.00398513 0)
(-0.460702 0.0355106 0)
(-0.115925 0.0796646 0)
(0.451756 0.131308 0)
(1.082 0.195711 0)
(1.70463 0.265268 0)
(2.26633 0.320102 0)
(2.73271 0.365955 0)
(-0.414588 0.00373527 0)
(-0.624868 0.0351545 0)
(-0.313736 0.0823093 0)
(0.243329 0.131678 0)
(0.853303 0.188796 0)
(1.45318 0.262432 0)
(2.02899 0.336852 0)
(2.53467 0.385445 0)
(2.95477 0.42453 0)
(-0.478727 0.00314306 0)
(-0.777621 0.0314346 0)
(-0.513187 0.0808104 0)
(0.0358121 0.135158 0)
(0.643443 0.186764 0)
(1.2204 0.249473 0)
(1.77606 0.333131 0)
(2.30372 0.409971 0)
(2.76163 0.450894 0)
(3.15735 0.484293 0)
(-0.531464 0.0027884 0)
(-0.907633 0.0260539 0)
(-0.699885 0.0721891 0)
(-0.174963 0.132793 0)
(0.437666 0.191181 0)
(1.01551 0.243155 0)
(1.54551 0.31203 0)
(2.05938 0.405283 0)
(2.53899 0.482597 0)
(2.96072 0.517268 0)
(3.35824 0.549456 0)
(-0.574674 0.00269147 0)
(-1.01265 0.0213247 0)
(-0.857352 0.0595336 0)
(-0.373222 0.11825 0)
(0.226163 0.188367 0)
(0.818372 0.248052 0)
(1.34917 0.29901 0)
(1.83963 0.374465 0)
(2.31138 0.475494 0)
(2.74686 0.553236 0)
(3.149 0.586131 0)
(3.57236 0.623732 0)
(-0.608178 0.00240987 0)
(-1.09353 0.0168351 0)
(-0.979824 0.0469305 0)
(-0.534479 0.0955437 0)
(0.0290098 0.166021 0)
(0.618185 0.244234 0)
(1.16818 0.302694 0)
(1.65804 0.352493 0)
(2.11293 0.433748 0)
(2.54198 0.540735 0)
(2.94357 0.620748 0)
(3.34683 0.659183 0)
(3.8051 0.708013 0)
(-0.630313 0.00194287 0)
(-1.14805 0.0118564 0)
(-1.06976 0.034677 0)
(-0.651814 0.0731212 0)
(-0.126223 0.13091 0)
(0.434118 0.213827 0)
(0.990938 0.297086 0)
(1.5002 0.352696 0)
(1.9559 0.401335 0)
(2.37371 0.48638 0)
(2.76572 0.59858 0)
(3.14954 0.684413 0)
(3.56969 0.736566 0)
(4.05081 0.798816 0)
(-0.640613 0.0016268 0)
(-1.17285 0.00629921 0)
(-1.12692 0.0213439 0)
(-0.735506 0.0530138 0)
(-0.236442 0.0980636 0)
(0.28545 0.167 0)
(0.824761 0.260512 0)
(1.34739 0.345906 0)
(1.82398 0.397558 0)
(2.24841 0.4433 0)
(2.63181 0.530029 0)
(2.99995 0.647655 0)
(3.3825 0.744088 0)
(3.8203 0.815411 0)
(4.29705 0.889951 0)
(-0.640267 0.00130512 0)
(-1.1671 0.00119947 0)
(-1.14553 0.00626876 0)
(-0.790278 0.0307236 0)
(-0.315336 0.0705221 0)
(0.172103 0.124377 0)
(0.679013 0.205232 0)
(1.19299 0.306478 0)
(1.68697 0.392441 0)
(2.13868 0.438697 0)
(2.53611 0.478437 0)
(2.89871 0.565022 0)
(3.25906 0.688205 0)
(3.64896 0.799428 0)
(4.0884 0.890699 0)
(4.53015 0.974296 0)
(-0.629827 0.000971619 0)
(-1.13292 -0.00343632 0)
(-1.11823 -0.00855058 0)
(-0.80544 0.00364122 0)
(-0.366945 0.0395033 0)
(0.0865635 0.0886636 0)
(0.556013 0.154648 0)
(1.044 0.246376 0)
(1.53282 0.354242 0)
(2.00636 0.439983 0)
(2.43804 0.478381 0)
(2.82017 0.509929 0)
(3.18232 0.594461 0)
(3.54841 0.722356 0)
(3.94201 0.848771 0)
(4.35807 0.956912 0)
(4.73757 1.04442 0)
(-0.608301 0.000518392 0)
(-1.07232 -0.00837049 0)
(-1.04348 -0.0221272 0)
(-0.764492 -0.0255663 0)
(-0.374863 -0.000994726 0)
(0.0356968 0.0466035 0)
(0.460211 0.109238 0)
(0.913078 0.188332 0)
(1.37628 0.290493 0)
(1.84585 0.405805 0)
(2.30334 0.490277 0)
(2.71876 0.519397 0)
(3.10333 0.543221 0)
(3.48398 0.623435 0)
(3.86235 0.752644 0)
(4.24558 0.889698 0)
(4.61418 1.00859 0)
(4.90946 1.09358 0)
(-0.574742 -0.000154502 0)
(-0.986941 -0.0138432 0)
(-0.928646 -0.0346622 0)
(-0.663805 -0.0526025 0)
(-0.321547 -0.0465688 0)
(0.040329 -0.00942922 0)
(0.410068 0.0524398 0)
(0.816558 0.131208 0)
(1.24394 0.222892 0)
(1.68473 0.336867 0)
(2.14096 0.460111 0)
(2.58063 0.542268 0)
(2.98522 0.564484 0)
(3.38923 0.583873 0)
(3.79864 0.656786 0)
(4.18599 0.780488 0)
(4.54148 0.920095 0)
(4.84178 1.04102 0)
(5.04231 1.1184 0)
(-0.528947 -0.000809019 0)
(-0.879495 -0.0194387 0)
(-0.787701 -0.0459438 0)
(-0.520368 -0.0737807 0)
(-0.215282 -0.0864209 0)
(0.103195 -0.0692069 0)
(0.422176 -0.0202734 0)
(0.773774 0.0581751 0)
(1.16003 0.151369 0)
(1.5598 0.255786 0)
(1.98636 0.383353 0)
(2.42873 0.513265 0)
(2.84622 0.593134 0)
(3.24963 0.615046 0)
(3.68174 0.634531 0)
(4.11564 0.696615 0)
(4.4999 0.806837 0)
(4.8113 0.938711 0)
(5.02688 1.0517 0)
(5.14111 1.12199 0)
(-0.471071 -0.0014289 0)
(-0.751191 -0.0246922 0)
(-0.630659 -0.0561057 0)
(-0.355192 -0.0892304 0)
(-0.0806593 -0.114911 0)
(0.196519 -0.117032 0)
(0.476665 -0.0901023 0)
(0.779586 -0.0279717 0)
(1.12892 0.0645547 0)
(1.49482 0.167726 0)
(1.8785 0.285118 0)
(2.29564 0.426029 0)
(2.71637 0.560393 0)
(3.11346 0.640699 0)
(3.52759 0.670423 0)
(3.98208 0.693145 0)
(4.42078 0.742151 0)
(4.78468 0.832306 0)
(5.0365 0.945015 0)
(5.1626 1.04257 0)
(5.21758 1.11284 0)
(-0.400673 -0.00203121 0)
(-0.600853 -0.030023 0)
(-0.455943 -0.066573 0)
(-0.175493 -0.102883 0)
(0.0732993 -0.135976 0)
(0.301423 -0.150798 0)
(0.542096 -0.141461 0)
(0.801514 -0.103513 0)
(1.11648 -0.0273543 0)
(1.46855 0.0729716 0)
(1.82764 0.182 0)
(2.21092 0.310408 0)
(2.61653 0.461086 0)
(3.01136 0.598068 0)
(3.39974 0.68406 0)
(3.82898 0.727371 0)
(4.28428 0.753829 0)
(4.7011 0.790012 0)
(5.0242 0.855842 0)
(5.20322 0.93889 0)
(5.25498 1.02018 0)
(5.28356 1.09945 0)
(-0.317166 -0.00264253 0)
(-0.425607 -0.0357041 0)
(-0.256807 -0.0784668 0)
(0.025307 -0.118932 0)
(0.257552 -0.156772 0)
(0.430968 -0.180994 0)
(0.617717 -0.180719 0)
(0.827669 -0.158341 0)
(1.09384 -0.104209 0)
(1.43172 -0.0162805 0)
(1.79192 0.0861072 0)
(2.16197 0.198396 0)
(2.55199 0.333595 0)
(2.94593 0.48782 0)
(3.32529 0.625774 0)
(3.71849 0.721857 0)
(4.15051 0.779663 0)
(4.57665 0.809352 0)
(4.94804 0.835251 0)
(5.20821 0.873151 0)
(5.3111 0.921659 0)
(5.31979 0.993532 0)
(5.34422 1.08668 0)
(-0.220438 -0.00344788 0)
(-0.22401 -0.04167 0)
(-0.0298646 -0.0915498 0)
(0.25283 -0.137749 0)
(0.482475 -0.18045 0)
(0.611874 -0.215252 0)
(0.732927 -0.224086 0)
(0.88309 -0.207773 0)
(1.08074 -0.166816 0)
(1.37247 -0.0923442 0)
(1.72962 0.00397743 0)
(2.10417 0.106793 0)
(2.49197 0.220999 0)
(2.89013 0.358008 0)
(3.28412 0.509458 0)
(3.66834 0.645878 0)
(4.0693 0.751723 0)
(4.4765 0.820242 0)
(4.84843 0.853809 0)
(5.15543 0.871461 0)
(5.33557 0.87849 0)
(5.37561 0.897175 0)
(5.37182 0.969837 0)
(5.39693 1.07648 0)
(-0.111815 -0.00423452 0)
(0.00227562 -0.0471047 0)
(0.220624 -0.104117 0)
(0.498685 -0.156009 0)
(0.736047 -0.203692 0)
(0.851345 -0.250244 0)
(0.912982 -0.275779 0)
(0.999523 -0.268295 0)
(1.12248 -0.234116 0)
(1.3353 -0.167945 0)
(1.65433 -0.0734787 0)
(2.02198 0.02995 0)
(2.40865 0.135667 0)
(2.81004 0.251892 0)
(3.22335 0.38722 0)
(3.63602 0.530742 0)
(4.03912 0.662147 0)
(4.43421 0.771093 0)
(4.78857 0.8441 0)
(5.09101 0.883589 0)
(5.31823 0.891419 0)
(5.41604 0.868844 0)
(5.41835 0.870317 0)
(5.41699 0.950949 0)
(5.43903 1.06945 0)
(0.00650861 -0.00478531 0)
(0.248758 -0.0515587 0)
(0.489865 -0.115098 0)
(0.748346 -0.171472 0)
(0.986639 -0.221335 0)
(1.11651 -0.275314 0)
(1.14783 -0.322599 0)
(1.18267 -0.336528 0)
(1.24364 -0.315516 0)
(1.36839 -0.259228 0)
(1.61544 -0.165753 0)
(1.95018 -0.0545024 0)
(2.31875 0.0575832 0)
(2.70906 0.170041 0)
(3.12263 0.290278 0)
(3.56174 0.423133 0)
(4.00167 0.555561 0)
(4.41977 0.677363 0)
(4.78603 0.778648 0)
(5.07235 0.850232 0)
(5.29758 0.895177 0)
(5.43692 0.890289 0)
(5.46766 0.845669 0)
(5.45593 0.844015 0)
(5.45688 0.933931 0)
(5.47908 1.06566 0)
(0.131388 -0.0052875 0)
(0.511412 -0.0546226 0)
(0.77963 -0.124789 0)
(1.00267 -0.186521 0)
(1.22052 -0.2357 0)
(1.3657 -0.287848 0)
(1.39568 -0.348615 0)
(1.39686 -0.390763 0)
(1.4237 -0.396226 0)
(1.48363 -0.363 0)
(1.64685 -0.281807 0)
(1.92648 -0.165196 0)
(2.26134 -0.040195 0)
(2.62517 0.0832477 0)
(3.01852 0.205236 0)
(3.45031 0.33258 0)
(3.91414 0.464104 0)
(4.37053 0.585795 0)
(4.78357 0.692553 0)
(5.10043 0.775181 0)
(5.31858 0.840723 0)
(5.46568 0.884876 0)
(5.5221 0.866162 0)
(5.5111 0.81195 0)
(5.49845 0.815959 0)
(5.50006 0.913468 0)
(5.54079 1.06293 0)
(0.259004 -0.00546931 0)
(0.785167 -0.0564301 0)
(1.09426 -0.132172 0)
(1.27485 -0.20312 0)
(1.4528 -0.253307 0)
(1.59452 -0.298903 0)
(1.6325 -0.357092 0)
(1.60739 -0.41719 0)
(1.61121 -0.451634 0)
(1.64297 -0.45249 0)
(1.74216 -0.404558 0)
(1.96215 -0.301232 0)
(2.25793 -0.169266 0)
(2.58543 -0.0318696 0)
(2.94991 0.104125 0)
(3.35632 0.237131 0)
(3.80758 0.373807 0)
(4.27723 0.506118 0)
(4.72685 0.619975 0)
(5.10708 0.706047 0)
(5.36517 0.76309 0)
(5.52522 0.817492 0)
(5.60048 0.850099 0)
(5.5928 0.819639 0)
(5.5651 0.768298 0)
(5.55553 0.779263 0)
(5.56879 0.884859 0)
(5.65003 1.0559 0)
(0.386374 -0.00549626 0)
(1.06313 -0.0567681 0)
(1.43102 -0.136465 0)
(1.57754 -0.218814 0)
(1.70382 -0.276316 0)
(1.82666 -0.319286 0)
(1.86973 -0.367376 0)
(1.82146 -0.427775 0)
(1.78651 -0.478239 0)
(1.80127 -0.506299 0)
(1.8621 -0.500638 0)
(2.03059 -0.435301 0)
(2.29723 -0.317532 0)
(2.59729 -0.177313 0)
(2.92771 -0.0287311 0)
(3.30582 0.118984 0)
(3.73068 0.263612 0)
(4.18728 0.409816 0)
(4.63961 0.545109 0)
(5.05711 0.652883 0)
(5.37983 0.713789 0)
(5.58344 0.744604 0)
(5.69685 0.779836 0)
(5.71225 0.790786 0)
(5.66875 0.754253 0)
(5.64202 0.712466 0)
(5.64049 0.728575 0)
(5.68903 0.847334 0)
(5.81626 1.03741 0)
(0.5111 -0.00543847 0)
(1.33915 -0.0558849 0)
(1.77846 -0.137172 0)
(1.91221 -0.229398 0)
(1.98129 -0.300142 0)
(2.07929 -0.347993 0)
(2.12549 -0.391701 0)
(2.06708 -0.444829 0)
(1.98067 -0.497759 0)
(1.95898 -0.53524 0)
(1.98813 -0.556837 0)
(2.10334 -0.536575 0)
(2.33918 -0.454086 0)
(2.63225 -0.330372 0)
(2.94482 -0.185992 0)
(3.29878 -0.0289647 0)
(3.69673 0.128091 0)
(4.12811 0.284288 0)
(4.56962 0.43907 0)
(4.98987 0.578028 0)
(5.35331 0.676277 0)
(5.60775 0.71145 0)
(5.76764 0.719127 0)
(5.83811 0.726088 0)
(5.81133 0.712129 0)
(5.76218 0.676533 0)
(5.74564 0.643504 0)
(5.76886 0.66662 0)
(5.87154 0.803031 0)
(6.02964 1.00071 0)
(0.630861 -0.00524231 0)
(1.60823 -0.0539614 0)
(2.12496 -0.134782 0)
(2.26764 -0.232084 0)
(2.27976 -0.317937 0)
(2.34694 -0.37587 0)
(2.39952 -0.424275 0)
(2.35176 -0.475678 0)
(2.22656 -0.529229 0)
(2.14861 -0.567431 0)
(2.14291 -0.594132 0)
(2.19813 -0.603553 0)
(2.3735 -0.560368 0)
(2.6515 -0.463518 0)
(2.96435 -0.338135 0)
(3.31101 -0.191069 0)
(3.69923 -0.0300153 0)
(4.10707 0.133224 0)
(4.52622 0.299813 0)
(4.93965 0.461983 0)
(5.31905 0.601024 0)
(5.61466 0.682288 0)
(5.80659 0.696191 0)
(5.92477 0.683203 0)
(5.94954 0.658184 0)
(5.90577 0.626247 0)
(5.87429 0.594494 0)
(5.878 0.566248 0)
(5.95097 0.603464 0)
(6.10457 0.75133 0)
(6.28429 0.944666 0)
(0.743627 -0.00495871 0)
(1.86618 -0.0511097 0)
(2.46422 -0.130246 0)
(2.6307 -0.228687 0)
(2.59508 -0.326164 0)
(2.61273 -0.395982 0)
(2.67108 -0.451301 0)
(2.65232 -0.508829 0)
(2.52432 -0.570185 0)
(2.39093 -0.616156 0)
(2.34222 -0.64 0)
(2.35058 -0.657495 0)
(2.44581 -0.645581 0)
(2.66802 -0.576641 0)
(2.96636 -0.468332 0)
(3.30704 -0.339166 0)
(3.69873 -0.189228 0)
(4.11043 -0.0288772 0)
(4.51282 0.137283 0)
(4.91107 0.311706 0)
(5.29209 0.478012 0)
(5.62156 0.608646 0)
(5.84815 0.667466 0)
(5.98551 0.665937 0)
(6.04898 0.633557 0)
(6.03264 0.584299 0)
(6.00131 0.546673 0)
(6.00086 0.515446 0)
(6.04702 0.492425 0)
(6.18421 0.546172 0)
(6.37282 0.689007 0)
(6.59517 0.878873 0)
(0.847365 -0.00461868 0)
(2.10933 -0.0473114 0)
(2.79323 -0.123994 0)
(2.99377 -0.222288 0)
(2.93179 -0.326253 0)
(2.87704 -0.409196 0)
(2.92298 -0.467859 0)
(2.93432 -0.530399 0)
(2.83817 -0.602403 0)
(2.67971 -0.668724 0)
(2.58384 -0.702828 0)
(2.55941 -0.718002 0)
(2.58753 -0.722531 0)
(2.73126 -0.682995 0)
(2.98619 -0.592053 0)
(3.29918 -0.473014 0)
(3.67152 -0.333563 0)
(4.09333 -0.179458 0)
(4.50675 -0.0232113 0)
(4.89936 0.143714 0)
(5.27935 0.320982 0)
(5.62693 0.483831 0)
(5.89765 0.595575 0)
(6.05882 0.632205 0)
(6.13554 0.618668 0)
(6.13347 0.57136 0)
(6.09772 0.516494 0)
(6.09959 0.482626 0)
(6.14428 0.448992 0)
(6.2622 0.434983 0)
(6.45746 0.491825 0)
(6.68187 0.619425 0)
(6.97722 0.815566 0)
(0.939712 -0.00417878 0)
(2.33331 -0.042608 0)
(3.10934 -0.115737 0)
(3.35336 -0.213965 0)
(3.29044 -0.321172 0)
(3.16247 -0.418224 0)
(3.15995 -0.481476 0)
(3.18808 -0.54058 0)
(3.13226 -0.61591 0)
(2.98397 -0.701865 0)
(2.85111 -0.764441 0)
(2.80097 -0.789201 0)
(2.79072 -0.799321 0)
(2.85595 -0.783973 0)
(3.05203 -0.717789 0)
(3.33345 -0.61183 0)
(3.66236 -0.479989 0)
(4.05349 -0.323836 0)
(4.47381 -0.164204 0)
(4.87514 -0.0110147 0)
(5.26503 0.155337 0)
(5.63222 0.327427 0)
(5.94417 0.474798 0)
(6.14785 0.558738 0)
(6.23787 0.576726 0)
(6.24097 0.55371 0)
(6.187 0.50345 0)
(6.15963 0.463136 0)
(6.2029 0.438953 0)
(6.31934 0.408088 0)
(6.52452 0.397317 0)
(6.76706 0.434882 0)
(7.05113 0.554336 0)
(7.41526 0.754291 0)
(1.01851 -0.00362202 0)
(2.53235 -0.0369426 0)
(3.407 -0.104921 0)
(3.7067 -0.20264 0)
(3.66124 -0.312485 0)
(3.48964 -0.421748 0)
(3.40511 -0.499216 0)
(3.42658 -0.551608 0)
(3.40115 -0.61946 0)
(3.28383 -0.710085 0)
(3.12948 -0.801608 0)
(3.04722 -0.854674 0)
(3.02266 -0.875467 0)
(3.03443 -0.877439 0)
(3.1605 -0.837947 0)
(3.40742 -0.752691 0)
(3.70895 -0.637439 0)
(4.04995 -0.489443 0)
(4.43725 -0.314496 0)
(4.82974 -0.147746 0)
(5.22022 0.00915669 0)
(5.61373 0.172863 0)
(5.97059 0.329698 0)
(6.23775 0.447156 0)
(6.36236 0.497599 0)
(6.36854 0.501064 0)
(6.30343 0.474188 0)
(6.2318 0.437696 0)
(6.23057 0.425052 0)
(6.32848 0.419875 0)
(6.54381 0.399974 0)
(6.82911 0.371306 0)
(7.12459 0.379104 0)
(7.48365 0.501807 0)
(7.86952 0.678874 0)
(1.08159 -0.0029751 0)
(2.70086 -0.0302508 0)
(3.67725 -0.0912038 0)
(4.04758 -0.186482 0)
(4.03218 -0.299281 0)
(3.85418 -0.416819 0)
(3.68759 -0.516611 0)
(3.66474 -0.57318 0)
(3.65832 -0.628109 0)
(3.57624 -0.708771 0)
(3.42381 -0.812064 0)
(3.29973 -0.897966 0)
(3.25367 -0.94149 0)
(3.23992 -0.959494 0)
(3.30309 -0.945413 0)
(3.5045 -0.883577 0)
(3.78938 -0.789126 0)
(4.09893 -0.666538 0)
(4.44263 -0.500192 0)
(4.80673 -0.309759 0)
(5.16635 -0.132148 0)
(5.5539 0.0366107 0)
(5.94956 0.194615 0)
(6.28868 0.325276 0)
(6.48987 0.398881 0)
(6.52275 0.414622 0)
(6.44942 0.407226 0)
(6.34546 0.386571 0)
(6.2871 0.377776 0)
(6.32918 0.40036 0)
(6.51096 0.427902 0)
(6.82828 0.415623 0)
(7.17762 0.348564 0)
(7.54081 0.334597 0)
(7.95284 0.452828 0)
(8.30318 0.570865 0)
(1.12707 -0.00218244 0)
(2.83369 -0.0227157 0)
(3.91101 -0.0747231 0)
(4.36562 -0.164735 0)
(4.39355 -0.27913 0)
(4.23225 -0.402475 0)
(4.02035 -0.522542 0)
(3.91851 -0.601784 0)
(3.91475 -0.649789 0)
(3.86138 -0.715474 0)
(3.73471 -0.810828 0)
(3.58086 -0.917918 0)
(3.4931 -0.991689 0)
(3.45776 -1.0286 0)
(3.46924 -1.03726 0)
(3.61222 -0.99978 0)
(3.87839 -0.922683 0)
(4.17728 -0.825994 0)
(4.48467 -0.694251 0)
(4.82016 -0.51107 0)
(5.15319 -0.310147 0)
(5.4962 -0.115463 0)
(5.88538 0.0681677 0)
(6.27253 0.216859 0)
(6.56717 0.309568 0)
(6.67604 0.330344 0)
(6.62325 0.314575 0)
(6.50109 0.300813 0)
(6.39185 0.296373 0)
(6.37081 0.324275 0)
(6.49076 0.389673 0)
(6.78126 0.455387 0)
(7.17595 0.434061 0)
(7.57913 0.327721 0)
(8.00545 0.301081 0)
(8.41965 0.386793 0)
(8.70115 0.424391 0)
(1.15431 -0.00133622 0)
(2.92729 -0.0146038 0)
(4.10009 -0.056135 0)
(4.65028 -0.137525 0)
(4.73649 -0.250858 0)
(4.60204 -0.378487 0)
(4.38729 -0.510811 0)
(4.20638 -0.621748 0)
(4.17015 -0.681611 0)
(4.14378 -0.736074 0)
(4.04935 -0.81582 0)
(3.8944 -0.923534 0)
(3.76194 -1.0239 0)
(3.69701 -1.08655 0)
(3.66969 -1.11731 0)
(3.7386 -1.1052 0)
(3.96075 -1.04217 0)
(4.25654 -0.957612 0)
(4.54852 -0.85962 0)
(4.85142 -0.715551 0)
(5.16866 -0.521307 0)
(5.47937 -0.310722 0)
(5.8288 -0.094346 0)
(6.21704 0.0997141 0)
(6.57069 0.232317 0)
(6.77766 0.276233 0)
(6.7875 0.245548 0)
(6.68257 0.204515 0)
(6.54801 0.187856 0)
(6.46408 0.20794 0)
(6.5161 0.279116 0)
(6.75229 0.392544 0)
(7.14549 0.483836 0)
(7.58758 0.439041 0)
(8.0353 0.307727 0)
(8.49057 0.263695 0)
(8.85708 0.285161 0)
(9.06703 0.252526 0)
(1.16406 -0.000469132 0)
(2.98135 -0.0066001 0)
(4.23906 -0.0365375 0)
(4.89176 -0.106061 0)
(5.05269 -0.214403 0)
(4.95345 -0.344738 0)
(4.75803 -0.483145 0)
(4.53563 -0.61898 0)
(4.4279 -0.710187 0)
(4.41871 -0.764823 0)
(4.35746 -0.833885 0)
(4.22637 -0.929146 0)
(4.06359 -1.04066 0)
(3.95994 -1.12912 0)
(3.91001 -1.18558 0)
(3.91528 -1.20472 0)
(4.05865 -1.1626 0)
(4.3247 -1.07757 0)
(4.61166 -0.989131 0)
(4.89065 -0.884945 0)
(5.18867 -0.727952 0)
(5.4854 -0.528287 0)
(5.79765 -0.303868 0)
(6.16675 -0.0681236 0)
(6.54017 0.125793 0)
(6.81752 0.229384 0)
(6.90641 0.220561 0)
(6.84575 0.150944 0)
(6.72731 0.0901545 0)
(6.61207 0.0737986 0)
(6.59605 0.125825 0)
(6.76429 0.244863 0)
(7.1245 0.401241 0)
(7.58755 0.496015 0)
(8.05863 0.426201 0)
(8.53308 0.279965 0)
(8.96799 0.198278 0)
(9.25242 0.143414 0)
(9.43344 0.0781168 0)
(1.15844 0.000305867 0)
(2.99856 0.000621942 0)
(4.3273 -0.0173344 0)
(5.08199 -0.0723951 0)
(5.33374 -0.171163 0)
(5.28341 -0.300956 0)
(5.11181 -0.443672 0)
(4.88955 -0.591623 0)
(4.70737 -0.718754 0)
(4.67456 -0.792085 0)
(4.6528 -0.857105 0)
(4.55498 -0.943 0)
(4.39045 -1.05105 0)
(4.24408 -1.15589 0)
(4.1709 -1.23473 0)
(4.14448 -1.28743 0)
(4.2083 -1.28553 0)
(4.40923 -1.21174 0)
(4.67295 -1.11089 0)
(4.93081 -1.01606 0)
(5.20087 -0.898165 0)
(5.49088 -0.731321 0)
(5.78243 -0.526499 0)
(6.12217 -0.284402 0)
(6.504 -0.0401566 0)
(6.83007 0.13728 0)
(6.9907 0.196363 0)
(6.97441 0.143271 0)
(6.88496 0.0509922 0)
(6.78094 -0.0256433 0)
(6.72791 -0.0352136 0)
(6.83098 0.0540275 0)
(7.13334 0.219836 0)
(7.58686 0.403375 0)
(8.08677 0.486105 0)
(8.57793 0.394687 0)
(9.04928 0.225399 0)
(9.40954 0.08626 0)
(9.62945 -0.0237237 0)
(9.84741 -0.0815051 0)
(1.14003 0.000939108 0)
(2.98394 0.00671078 0)
(4.36815 1.67517e-05 0)
(5.21681 -0.0394456 0)
(5.57106 -0.123602 0)
(5.58744 -0.248164 0)
(5.44544 -0.393936 0)
(5.24062 -0.547048 0)
(5.01996 -0.69832 0)
(4.91982 -0.806262 0)
(4.92452 -0.876021 0)
(4.86661 -0.959597 0)
(4.7241 -1.0619 0)
(4.546 -1.17329 0)
(4.43813 -1.26595 0)
(4.39751 -1.34083 0)
(4.4093 -1.38588 0)
(4.53351 -1.35544 0)
(4.75491 -1.25607 0)
(4.98729 -1.14468 0)
(5.21652 -1.03639 0)
(5.48031 -0.899547 0)
(5.76583 -0.725328 0)
(6.08159 -0.510037 0)
(6.45719 -0.253642 0)
(6.82166 -0.0181228 0)
(7.05802 0.121979 0)
(7.09812 0.12914 0)
(7.02196 0.04908 0)
(6.93194 -0.0546319 0)
(6.87749 -0.13904 0)
(6.94263 -0.132427 0)
(7.19046 -0.00563826 0)
(7.60389 0.196732 0)
(8.11101 0.390277 0)
(8.63149 0.45322 0)
(9.13028 0.335604 0)
(9.54408 0.125251 0)
(9.82027 -0.06615 0)
(10.0378 -0.194958 0)
(10.3222 -0.220422 0)
(1.11118 0.0014917 0)
(2.94342 0.0116556 0)
(4.3671 0.014688 0)
(5.29698 -0.00968884 0)
(5.75693 -0.0753424 0)
(5.85789 -0.188819 0)
(5.76065 -0.334032 0)
(5.57544 -0.49181 0)
(5.35216 -0.653395 0)
(5.18134 -0.795564 0)
(5.1649 -0.885869 0)
(5.15683 -0.968453 0)
(5.04681 -1.07183 0)
(4.86156 -1.18573 0)
(4.70681 -1.28813 0)
(4.64732 -1.37027 0)
(4.63844 -1.44405 0)
(4.69469 -1.47261 0)
(4.85847 -1.41293 0)
(5.06965 -1.29806 0)
(5.26627 -1.17844 0)
(5.47758 -1.04948 0)
(5.73742 -0.892362 0)
(6.03705 -0.707675 0)
(6.3983 -0.477437 0)
(6.78777 -0.21995 0)
(7.09242 -0.0129363 0)
(7.21667 0.0717261 0)
(7.17391 0.0332376 0)
(7.07957 -0.0596581 0)
(7.01752 -0.166237 0)
(7.06526 -0.242984 0)
(7.28307 -0.213005 0)
(7.65774 -0.0570107 0)
(8.14474 0.16709 0)
(8.68442 0.355723 0)
(9.21794 0.390911 0)
(9.67509 0.235225 0)
(9.99958 -0.0192242 0)
(10.2416 -0.236659 0)
(10.4996 -0.356133 0)
(10.8385 -0.340142 0)
(1.07384 0.00197435 0)
(2.8823 0.0157473 0)
(4.33114 0.0263904 0)
(5.32884 0.01565 0)
(5.88552 -0.0305324 0)
(6.08557 -0.126172 0)
(6.05224 -0.264982 0)
(5.89542 -0.426708 0)
(5.68334 -0.594143 0)
(5.47323 -0.757363 0)
(5.39127 -0.880157 0)
(5.41395 -0.966787 0)
(5.35222 -1.07188 0)
(5.18301 -1.19241 0)
(4.98636 -1.30649 0)
(4.88422 -1.39216 0)
(4.8643 -1.46861 0)
(4.881 -1.53726 0)
(4.9773 -1.54118 0)
(5.15753 -1.45869 0)
(5.34499 -1.3383 0)
(5.51681 -1.20943 0)
(5.72512 -1.05631 0)
(5.9932 -0.879055 0)
(6.3287 -0.676758 0)
(6.72489 -0.43419 0)
(7.0857 -0.193256 0)
(7.30012 -0.0345389 0)
(7.32812 -0.0112108 0)
(7.25094 -0.0830731 0)
(7.17319 -0.182454 0)
(7.18649 -0.278615 0)
(7.37655 -0.330018 0)
(7.73538 -0.277948 0)
(8.20326 -0.106274 0)
(8.74359 0.122413 0)
(9.30727 0.290752 0)
(9.80995 0.289828 0)
(10.1778 0.0911548 0)
(10.4433 -0.18981 0)
(10.7014 -0.405602 0)
(11.0023 -0.502497 0)
(11.3695 -0.444157 0)
(1.0297 0.00237622 0)
(2.80506 0.0189675 0)
(4.26743 0.0355741 0)
(5.32123 0.0364252 0)
(5.95762 0.00740088 0)
(6.26054 -0.0650529 0)
(6.30917 -0.18964 0)
(6.19979 -0.350207 0)
(6.0045 -0.524872 0)
(5.78569 -0.698916 0)
(5.63539 -0.851982 0)
(5.63493 -0.956783 0)
(5.63263 -1.0571 0)
(5.4983 -1.1862 0)
(5.28753 -1.31685 0)
(5.12423 -1.41729 0)
(5.07385 -1.4864 0)
(5.07079 -1.5588 0)
(5.10795 -1.61247 0)
(5.23807 -1.58868 0)
(5.4203 -1.49442 0)
(5.58333 -1.3753 0)
(5.74966 -1.2337 0)
(5.97528 -1.05734 0)
(6.27108 -0.859384 0)
(6.64223 -0.634628 0)
(7.03311 -0.389351 0)
(7.32934 -0.181692 0)
(7.45265 -0.085884 0)
(7.42673 -0.11826 0)
(7.35626 -0.215522 0)
(7.33901 -0.314346 0)
(7.47312 -0.381696 0)
(7.80307 -0.398109 0)
(8.27029 -0.331675 0)
(8.81577 -0.159126 0)
(9.40114 0.0528303 0)
(9.94513 0.18883 0)
(10.3623 0.147197 0)
(10.6509 -0.0850804 0)
(10.9063 -0.365662 0)
(11.1962 -0.563512 0)
(11.5193 -0.634562 0)
(11.8948 -0.535467 0)
(0.98061 0.00272503 0)
(2.7159 0.0213507 0)
(4.18255 0.0425962 0)
(5.28118 0.0530102 0)
(5.98313 0.0378316 0)
(6.37607 -0.0113864 0)
(6.51926 -0.113059 0)
(6.47751 -0.26338 0)
(6.31401 -0.442895 0)
(6.10081 -0.626999 0)
(5.9112 -0.800668 0)
(5.84602 -0.934869 0)
(5.87255 -1.03473 0)
(5.7981 -1.16053 0)
(5.60124 -1.30915 0)
(5.39066 -1.43789 0)
(5.28243 -1.51646 0)
(5.25461 -1.57324 0)
(5.24859 -1.63656 0)
(5.31082 -1.66362 0)
(5.47038 -1.6156 0)
(5.64443 -1.52194 0)
(5.79352 -1.40482 0)
(5.98149 -1.24675 0)
(6.24448 -1.05101 0)
(6.57465 -0.831507 0)
(6.95195 -0.586939 0)
(7.29761 -0.351076 0)
(7.51806 -0.191434 0)
(7.57847 -0.162651 0)
(7.54639 -0.243116 0)
(7.52412 -0.360326 0)
(7.60867 -0.444625 0)
(7.8749 -0.467595 0)
(8.31689 -0.449281 0)
(8.87779 -0.377109 0)
(9.49828 -0.224068 0)
(10.0818 -0.0487887 0)
(10.5465 0.0489126 0)
(10.8747 -0.031379 0)
(11.1239 -0.275991 0)
(11.3963 -0.533202 0)
(11.7032 -0.709385 0)
(12.0314 -0.752402 0)
(12.4009 -0.618042 0)
(0.928835 0.00292559 0)
(2.61914 0.022878 0)
(4.08226 0.0475501 0)
(5.21422 0.0656124 0)
(5.97471 0.0624284 0)
(6.43565 0.0313519 0)
(6.67333 -0.0424109 0)
(6.71269 -0.172038 0)
(6.604 -0.346084 0)
(6.40722 -0.540618 0)
(6.20634 -0.729755 0)
(6.07984 -0.893685 0)
(6.07719 -1.01048 0)
(6.06486 -1.12238 0)
(5.91023 -1.27614 0)
(5.68562 -1.43543 0)
(5.51323 -1.54956 0)
(5.44244 -1.607 0)
(5.40309 -1.65371 0)
(5.39405 -1.69648 0)
(5.49365 -1.68824 0)
(5.67193 -1.62592 0)
(5.83236 -1.54099 0)
(5.99459 -1.42018 0)
(6.23012 -1.24497 0)
(6.53374 -1.03439 0)
(6.88028 -0.794894 0)
(7.23073 -0.5401 0)
(7.51536 -0.326847 0)
(7.67343 -0.225123 0)
(7.71646 -0.259589 0)
(7.72343 -0.383091 0)
(7.78437 -0.510463 0)
(7.98537 -0.562903 0)
(8.3677 -0.53487 0)
(8.91055 -0.486632 0)
(9.56824 -0.421278 0)
(10.2155 -0.311578 0)
(10.7294 -0.185284 0)
(11.1039 -0.126082 0)
(11.3705 -0.234359 0)
(11.6117 -0.465337 0)
(11.8974 -0.689521 0)
(12.2038 -0.843984 0)
(12.5278 -0.857401 0)
(12.878 -0.696266 0)
(0.876726 0.00292091 0)
(2.51945 0.023438 0)
(3.97252 0.0503072 0)
(5.12604 0.0743423 0)
(5.93998 0.082332 0)
(6.45318 0.0641951 0)
(6.76895 0.0159203 0)
(6.89479 -0.0849434 0)
(6.85706 -0.240157 0)
(6.69735 -0.43561 0)
(6.49945 -0.639737 0)
(6.34177 -0.828111 0)
(6.28093 -0.976565 0)
(6.28484 -1.08683 0)
(6.19589 -1.22314 0)
(5.98808 -1.39904 0)
(5.77533 -1.5574 0)
(5.64747 -1.65043 0)
(5.57585 -1.69307 0)
(5.51077 -1.72613 0)
(5.52083 -1.73343 0)
(5.66182 -1.68937 0)
(5.84008 -1.62506 0)
(5.99998 -1.54746 0)
(6.2112 -1.41536 0)
(6.49825 -1.22765 0)
(6.82322 -1.00531 0)
(7.16197 -0.75171 0)
(7.47442 -0.500835 0)
(7.70453 -0.324575 0)
(7.83461 -0.282288 0)
(7.90696 -0.374137 0)
(7.98647 -0.534746 0)
(8.14485 -0.658679 0)
(8.45439 -0.666422 0)
(8.9473 -0.587179 0)
(9.60314 -0.517755 0)
(10.3133 -0.479426 0)
(10.9055 -0.431283 0)
(11.3301 -0.354678 0)
(11.6347 -0.328898 0)
(11.865 -0.446595 0)
(12.1081 -0.645271 0)
(12.3935 -0.836862 0)
(12.6896 -0.968058 0)
(13.0006 -0.953263 0)
(13.3249 -0.772469 0)
(0.826492 0.00275869 0)
(2.42085 0.0229596 0)
(3.8598 0.0509043 0)
(5.023 0.0790521 0)
(5.88046 0.0972323 0)
(6.44367 0.090602 0)
(6.81328 0.0601317 0)
(7.02217 -0.0100534 0)
(7.05913 -0.136822 0)
(6.9578 -0.316188 0)
(6.77659 -0.527653 0)
(6.61051 -0.735994 0)
(6.50718 -0.918097 0)
(6.47826 -1.05296 0)
(6.43745 -1.17062 0)
(6.27541 -1.33419 0)
(6.05274 -1.52155 0)
(5.87367 -1.6684 0)
(5.76545 -1.74319 0)
(5.6655 -1.77633 0)
(5.59123 -1.78527 0)
(5.64662 -1.74555 0)
(5.81304 -1.67539 0)
(5.98288 -1.61592 0)
(6.17786 -1.53466 0)
(6.4528 -1.38967 0)
(6.7683 -1.19586 0)
(7.09377 -0.964355 0)
(7.41842 -0.707077 0)
(7.69859 -0.478078 0)
(7.90027 -0.349068 0)
(8.04624 -0.362489 0)
(8.17991 -0.505979 0)
(8.34392 -0.694554 0)
(8.59698 -0.803042 0)
(9.01682 -0.757933 0)
(9.63868 -0.631052 0)
(10.3732 -0.557853 0)
(11.0451 -0.568093 0)
(11.5444 -0.584643 0)
(11.8967 -0.549003 0)
(12.1494 -0.548427 0)
(12.3588 -0.655906 0)
(12.6017 -0.815587 0)
(12.8761 -0.977021 0)
(13.1551 -1.08417 0)
(13.4468 -1.04342 0)
(13.7452 -0.847148 0)
(0.779883 0.00247266 0)
(2.32621 0.0217011 0)
(3.74954 0.0496077 0)
(4.91304 0.0797917 0)
(5.7982 0.106057 0)
(6.41315 0.112272 0)
(6.82109 0.0935963 0)
(7.09715 0.048806 0)
(7.20954 -0.0460593 0)
(7.17367 -0.196565 0)
(7.02943 -0.397106 0)
(6.8643 -0.617237 0)
(6.74501 -0.825601 0)
(6.67754 -0.999555 0)
(6.63633 -1.12842 0)
(6.52922 -1.26395 0)
(6.32213 -1.44865 0)
(6.11177 -1.63518 0)
(5.96209 -1.76592 0)
(5.84252 -1.83091 0)
(5.71688 -1.85384 0)
(5.67049 -1.8245 0)
(5.77734 -1.73797 0)
(5.94675 -1.65596 0)
(6.12926 -1.59591 0)
(6.38755 -1.4996 0)
(6.70337 -1.34758 0)
(7.02413 -1.15164 0)
(7.35091 -0.915598 0)
(7.66758 -0.670456 0)
(7.93115 -0.479437 0)
(8.14497 -0.400615 0)
(8.33995 -0.466674 0)
(8.54421 -0.654703 0)
(8.78962 -0.861921 0)
(9.14325 -0.94379 0)
(9.69951 -0.838624 0)
(10.4251 -0.675716 0)
(11.1473 -0.623976 0)
(11.7252 -0.693222 0)
(12.1389 -0.761255 0)
(12.4368 -0.757884 0)
(12.6503 -0.772524 0)
(12.8488 -0.856996 0)
(13.0854 -0.978182 0)
(13.3401 -1.11212 0)
(13.5969 -1.19444 0)
(13.8683 -1.12976 0)
(14.1424 -0.919697 0)
(0.737798 0.00214515 0)
(2.23729 0.0198966 0)
(3.64504 0.0470688 0)
(4.80452 0.07718 0)
(5.70037 0.108386 0)
(6.35995 0.12774 0)
(6.80658 0.12064 0)
(7.12621 0.0927041 0)
(7.3121 0.0280886 0)
(7.3404 -0.0902314 0)
(7.24888 -0.262821 0)
(7.09608 -0.477921 0)
(6.97062 -0.70055 0)
(6.88651 -0.907269 0)
(6.82072 -1.07543 0)
(6.73915 -1.20713 0)
(6.5708 -1.36419 0)
(6.34673 -1.55815 0)
(6.15723 -1.73377 0)
(6.01649 -1.85138 0)
(5.87445 -1.9134 0)
(5.75458 -1.91841 0)
(5.76825 -1.84124 0)
(5.9093 -1.72167 0)
(6.08031 -1.63513 0)
(6.31016 -1.55992 0)
(6.61938 -1.44771 0)
(6.9447 -1.29481 0)
(7.27523 -1.09772 0)
(7.61678 -0.867572 0)
(7.93184 -0.652192 0)
(8.20864 -0.506448 0)
(8.46849 -0.477684 0)
(8.72314 -0.594035 0)
(8.99464 -0.819417 0)
(9.32332 -1.0355 0)
(9.80744 -1.0744 0)
(10.4869 -0.907117 0)
(11.2297 -0.733122 0)
(11.8718 -0.723628 0)
(12.3486 -0.845957 0)
(12.6967 -0.948698 0)
(12.9514 -0.971888 0)
(13.1402 -0.992437 0)
(13.3308 -1.0487 0)
(13.5523 -1.13532 0)
(13.7811 -1.24382 0)
(14.0156 -1.29981 0)
(14.2668 -1.21271 0)
(14.5188 -0.989849 0)
(0.700595 0.00177668 0)
(2.15458 0.0179 0)
(3.54714 0.0439552 0)
(4.70338 0.0726501 0)
(5.59737 0.104875 0)
(6.28443 0.134608 0)
(6.77517 0.142102 0)
(7.12315 0.125876 0)
(7.36858 0.0855105 0)
(7.46216 -0.0018687 0)
(7.42633 -0.140987 0)
(7.30512 -0.332452 0)
(7.17524 -0.553875 0)
(7.08628 -0.776267 0)
(7.00789 -0.982859 0)
(6.91808 -1.1489 0)
(6.78748 -1.29089 0)
(6.57343 -1.46556 0)
(6.34905 -1.65572 0)
(6.17433 -1.81563 0)
(6.02643 -1.92688 0)
(5.87906 -1.98641 0)
(5.80766 -1.96217 0)
(5.88824 -1.8408 0)
(6.04478 -1.7061 0)
(6.24289 -1.60814 0)
(6.52724 -1.50896 0)
(6.85209 -1.38823 0)
(7.18734 -1.23472 0)
(7.54831 -1.03981 0)
(7.90789 -0.831352 0)
(8.23796 -0.655913 0)
(8.55852 -0.555007 0)
(8.87353 -0.577176 0)
(9.1861 -0.740114 0)
(9.52519 -0.997613 0)
(9.9619 -1.20501 0)
(10.5735 -1.17998 0)
(11.3004 -0.965958 0)
(11.9888 -0.810345 0)
(12.5302 -0.851158 0)
(12.9219 -1.01287 0)
(13.2202 -1.13763 0)
(13.4447 -1.18281 0)
(13.6187 -1.20302 0)
(13.7981 -1.23146 0)
(13.9966 -1.2885 0)
(14.1983 -1.37168 0)
(14.4118 -1.40039 0)
(14.6433 -1.29207 0)
(14.8758 -1.05704 0)
(0.66842 0.00142133 0)
(2.07829 0.0157804 0)
(3.45459 0.0406473 0)
(4.61163 0.067701 0)
(5.49931 0.0977572 0)
(6.19358 0.132419 0)
(6.72499 0.15522 0)
(7.10245 0.151676 0)
(7.3851 0.128014 0)
(7.54403 0.0691427 0)
(7.56029 -0.0390463 0)
(7.48401 -0.196766 0)
(7.36256 -0.40078 0)
(7.26567 -0.622655 0)
(7.18943 -0.846193 0)
(7.08949 -1.05505 0)
(6.9672 -1.22195 0)
(6.78665 -1.37919 0)
(6.54311 -1.56195 0)
(6.32463 -1.738 0)