/*--------------------------------*- C++ -*----------------------------------*\
| =========                 |                                                 |
| \\      /  F ield         | OpenFOAM: The Open Source CFD Toolbox           |
|  \\    /   O peration     | Version:  2412                                  |
|   \\  /    A nd           | Website:  www.openfoam.com                      |
|    \\/     M anipulation  |                                                 |
\*---------------------------------------------------------------------------*/
FoamFile
{
    version     2.0;
    format      ascii;
    arch        "LSB;label=32;scalar=64";
    class       volScalarField;
    location    "0.1";
    object      dpdt;
}
// * * * * * * * * * * * * * * * * * * * * * * * * * * * * * * * * * * * * * //

dimensions      [1 -1 -3 0 0 0 0];

internalField   nonuniform List<scalar> 
12008
(
41883.91863
41883.91456
41883.91076
41883.90817
41883.90749
41883.90918
41883.9135
41883.9207
41883.93111
41883.94512
41883.96317
41883.98565
41884.01294
41884.0453
41884.0829
41884.12577
41884.17374
41884.22643
41884.28328
41884.34348
41884.406
41884.46967
41884.5332
41884.59527
41884.65459
41884.70997
41884.76045
41884.80525
41884.84386
41884.87604
41884.90168
41884.92076
41884.93361
41884.94079
41884.94287
41884.94042
41884.934
41884.92415
41884.91135
41884.89606
41884.87868
41884.85953
41884.83886
41884.81685
41884.79365
41884.76941
41884.7442
41884.71804
41884.69093
41884.66287
41884.63386
41884.60392
41884.57304
41884.54126
41884.50865
41884.47515
41884.4406
41884.40506
41884.3686
41884.33133
41884.29336
41884.25487
41884.2161
41884.17734
41884.13897
41884.10138
41884.06508
41884.03065
41883.99872
41883.96998
41883.94517
41883.92506
41883.91039
41883.90189
41883.90017
41883.90578
41883.91908
41883.94026
41883.96924
41884.00576
41884.04927
41884.09902
41884.15402
41884.21315
41884.2752
41884.33887
41884.40292
41884.46616
41884.52757
41884.58636
41884.64194
41884.69397
41884.74227
41884.78684
41884.82778
41884.86523
41884.89939
41884.93055
41884.95901
41884.98505
41885.00897
41885.03098
41885.05132
41885.07017
41885.08771
41885.10403
41885.11923
41885.13336
41885.1465
41885.15871
41885.17003
41885.18048
41885.19009
41885.19895
41885.20711
41885.21458
41885.2214
41885.22761
41885.23325
41885.23834
41885.24289
41885.24696
41885.25059
41885.25379
41885.25655
41885.25892
41885.26094
41885.26259
41885.26388
41885.26486
41885.26555
41885.26598
41885.26617
41885.26613
41885.26589
41885.26548
41885.26494
41885.26444
41885.26426
41885.26442
41883.92248
41883.91822
41883.91475
41883.91272
41883.91228
41883.91388
41883.9179
41883.9247
41883.93463
41883.94807
41883.96545
41883.98722
41884.01373
41884.04526
41884.082
41884.12399
41884.17111
41884.22302
41884.27915
41884.33875
41884.40082
41884.4642
41884.5276
41884.5897
41884.64918
41884.70486
41884.75571
41884.80094
41884.84001
41884.8726
41884.89884
41884.91853
41884.93172
41884.9392
41884.94159
41884.93943
41884.93327
41884.92364
41884.91103
41884.89589
41884.8786
41884.85951
41884.83888
41884.81689
41884.7937
41884.76942
41884.74414
41884.71792
41884.69076
41884.66263
41884.63356
41884.60352
41884.5725
41884.54054
41884.50789
41884.47436
41884.43964
41884.40394
41884.36733
41884.32988
41884.29174
41884.25307
41884.21412
41884.17517
41884.13662
41884.09888
41884.06247
41884.02798
41883.99606
41883.96743
41883.94285
41883.92308
41883.90892
41883.90107
41883.90018
41883.90676
41883.92117
41883.94356
41883.97382
41884.01162
41884.05638
41884.10725
41884.16324
41884.22315
41884.28573
41884.34967
41884.41371
41884.47666
41884.53754
41884.59557
41884.65023
41884.70123
41884.74845
41884.79196
41884.83189
41884.86842
41884.90179
41884.93225
41884.96007
41884.98558
41885.00904
41885.03069
41885.05072
41885.06933
41885.08665
41885.10281
41885.11788
41885.13192
41885.14499
41885.15714
41885.16842
41885.17886
41885.1885
41885.19738
41885.20557
41885.21309
41885.21996
41885.22621
41885.23191
41885.23705
41885.24167
41885.24579
41885.24948
41885.25273
41885.25555
41885.25798
41885.26002
41885.26171
41885.26305
41885.26405
41885.26476
41885.26522
41885.26545
41885.26548
41885.26534
41885.26502
41885.26445
41885.26379
41885.26346
41885.26376
41883.92673
41883.9221
41883.91831
41883.91618
41883.9156
41883.91685
41883.92033
41883.92639
41883.93544
41883.94796
41883.96435
41883.98508
41884.01054
41884.04105
41884.07686
41884.11804
41884.16454
41884.21606
41884.27209
41884.33186
41884.39441
41884.45854
41884.52291
41884.58613
41884.64681
41884.70368
41884.75564
41884.80186
41884.84174
41884.87495
41884.90148
41884.92159
41884.93508
41884.94243
41884.94469
41884.94237
41884.93602
41884.92619
41884.91339
41884.89807
41884.88061
41884.86135
41884.84058
41884.81848
41884.7952
41884.77084
41884.74549
41884.7192
41884.69199
41884.66384
41884.63473
41884.60464
41884.57352
41884.54137
41884.50866
41884.4751
41884.4402
41884.40427
41884.36738
41884.32961
41884.29108
41884.25197
41884.21251
41884.173
41884.13382
41884.09542
41884.05833
41884.02316
41883.99059
41883.96138
41883.93633
41883.91625
41883.90197
41883.89426
41883.8938
41883.90114
41883.91663
41883.94041
41883.97235
41884.01204
41884.05882
41884.11178
41884.16982
41884.23167
41884.29595
41884.36127
41884.42627
41884.48976
41884.55071
41884.60837
41884.66231
41884.71228
41884.75828
41884.80049
41884.83916
41884.87456
41884.90684
41884.93623
41884.96313
41884.98784
41885.01064
41885.03174
41885.05133
41885.06957
41885.08659
41885.10251
41885.1174
41885.13131
41885.14428
41885.15634
41885.16756
41885.17797
41885.1876
41885.19648
41885.20466
41885.2122
41885.21908
41885.22536
41885.23106
41885.23623
41885.24088
41885.24503
41885.24873
41885.252
41885.25486
41885.25729
41885.25935
41885.26105
41885.2624
41885.26342
41885.26415
41885.26461
41885.26485
41885.2649
41885.26483
41885.26468
41885.26433
41885.26372
41885.26316
41885.26313
41883.92962
41883.92479
41883.9206
41883.91802
41883.9169
41883.91747
41883.92004
41883.92502
41883.93287
41883.94407
41883.95911
41883.97847
41884.00261
41884.03194
41884.06676
41884.10726
41884.15343
41884.20507
41884.26171
41884.32261
41884.38675
41884.45288
41884.51953
41884.58518
41884.64829
41884.70741
41884.76133
41884.80913
41884.85017
41884.88412
41884.91092
41884.93116
41884.94452
41884.9513
41884.95291
41884.94988
41884.9428
41884.93227
41884.91883
41884.90295
41884.88499
41884.86531
41884.84418
41884.82182
41884.79835
41884.77387
41884.74845
41884.72212
41884.69491
41884.66678
41884.6377
41884.60763
41884.57651
41884.54425
41884.51139
41884.4777
41884.44271
41884.40649
41884.36922
41884.33097
41884.29185
41884.25202
41884.21172
41884.17123
41884.13094
41884.09131
41884.05289
41884.01631
41883.9823
41883.95167
41883.92528
41883.90403
41883.88882
41883.88052
41883.8799
41883.88756
41883.90392
41883.92912
41883.96302
41884.00515
41884.05476
41884.11083
41884.17211
41884.2372
41884.30456
41884.37263
41884.43987
41884.50494
41884.56679
41884.62466
41884.67821
41884.72726
41884.77195
41884.81276
41884.85025
41884.88428
41884.91501
41884.94304
41884.96873
41884.99238
41885.01428
41885.03464
41885.05364
41885.0714
41885.08803
41885.10364
41885.11827
41885.13199
41885.1448
41885.15676
41885.16788
41885.17821
41885.18779
41885.19662
41885.20474
41885.21222
41885.21907
41885.22531
41885.23097
41885.23611
41885.24073
41885.24486
41885.24852
41885.25175
41885.25458
41885.25699
41885.25902
41885.2607
41885.26204
41885.26306
41885.26379
41885.26427
41885.26451
41885.26453
41885.2644
41885.26423
41885.26405
41885.26366
41885.26305
41885.26267
41883.93126
41883.92631
41883.92179
41883.91864
41883.91674
41883.91628
41883.91762
41883.92117
41883.92744
41883.93692
41883.95018
41883.96776
41883.99021
41884.01805
41884.05169
41884.09145
41884.13743
41884.18955
41884.24739
41884.31023
41884.37701
41884.44636
41884.51665
41884.58607
41884.65286
41884.71536
41884.77215
41884.82217
41884.86477
41884.89963
41884.92678
41884.94673
41884.95938
41884.96528
41884.96578
41884.96154
41884.95325
41884.94155
41884.92705
41884.91024
41884.89148
41884.87114
41884.84948
41884.82672
41884.80298
41884.77835
41884.75286
41884.72653
41884.69936
41884.67131
41884.64232
41884.61234
41884.58131
41884.54911
41884.51588
41884.48199
41884.44702
41884.4105
41884.37276
41884.33389
41884.29398
41884.25318
41884.21171
41884.16985
41884.12798
41884.08658
41884.04619
41884.00749
41883.97126
41883.93837
41883.90978
41883.88651
41883.86956
41883.85995
41883.85857
41883.86616
41883.88322
41883.90994
41883.94616
41883.99138
41884.0447
41884.10497
41884.17077
41884.2405
41884.3124
41884.38464
41884.4554
41884.52311
41884.5866
41884.64514
41884.69849
41884.74656
41884.78968
41884.82932
41884.86535
41884.89727
41884.92614
41884.95247
41884.97664
41884.99897
41885.01973
41885.03915
41885.05739
41885.07454
41885.0907
41885.10591
41885.12024
41885.13372
41885.14635
41885.15817
41885.16918
41885.17941
41885.1889
41885.19765
41885.2057
41885.21307
41885.21982
41885.22598
41885.23156
41885.23661
41885.24116
41885.24522
41885.2488
41885.25195
41885.2547
41885.25705
41885.25902
41885.26065
41885.26195
41885.26294
41885.26366
41885.26413
41885.2644
41885.26445
41885.26428
41885.26399
41885.26372
41885.26342
41885.26288
41885.26231
41883.93198
41883.92689
41883.92201
41883.9182
41883.9153
41883.91355
41883.91332
41883.91509
41883.91934
41883.92665
41883.93763
41883.95293
41883.97322
41883.99914
41884.03128
41884.07011
41884.11593
41884.16876
41884.22834
41884.29395
41884.3645
41884.43842
41884.51382
41884.58856
41884.66049
41884.72761
41884.78825
41884.8412
41884.88572
41884.92157
41884.94889
41884.96828
41884.97991
41884.98441
41884.9832
41884.97718
41884.96713
41884.95377
41884.93778
41884.91967
41884.89981
41884.87859
41884.85624
41884.83296
41884.80888
41884.78407
41884.75853
41884.73225
41884.70518
41884.67728
41884.64847
41884.61866
41884.58778
41884.55572
41884.5224
41884.48822
41884.45298
41884.41634
41884.37806
41884.33845
41884.29759
41884.25559
41884.21265
41884.16905
41884.12515
41884.08142
41884.03842
41883.99687
41883.9576
41883.92157
41883.88984
41883.86359
41883.844
41883.83224
41883.82943
41883.83649
41883.85403
41883.88236
41883.92132
41883.97033
41884.02835
41884.09403
41884.16574
41884.24166
41884.31975
41884.39776
41884.47347
41884.54494
41884.61081
41884.67038
41884.72361
41884.77062
41884.81235
41884.85004
41884.88366
41884.91339
41884.94008
41884.96434
41884.98665
41885.00737
41885.02677
41885.04507
41885.06239
41885.07883
41885.09442
41885.1092
41885.12319
41885.1364
41885.14884
41885.1605
41885.17139
41885.18151
41885.19088
41885.19953
41885.20746
41885.21472
41885.22134
41885.22736
41885.23282
41885.23774
41885.24217
41885.24611
41885.24958
41885.2526
41885.25524
41885.25749
41885.25937
41885.26092
41885.26216
41885.26309
41885.26375
41885.26417
41885.26441
41885.26448
41885.26436
41885.26403
41885.26362
41885.26325
41885.26272
41885.26208
41883.93213
41883.92691
41883.92162
41883.91701
41883.91288
41883.90959
41883.90747
41883.90703
41883.90879
41883.9134
41883.92153
41883.93395
41883.95147
41883.9749
41884.00503
41884.04259
41884.08808
41884.14178
41884.20356
41884.2728
41884.34833
41884.42837
41884.51064
41884.59251
41884.67129
41884.74449
41884.8101
41884.86669
41884.91348
41884.95032
41884.9775
41884.99583
41885.00607
41885.0087
41885.00502
41884.99654
41884.98416
41884.96862
41884.95069
41884.93089
41884.90965
41884.88732
41884.86413
41884.84024
41884.81577
41884.79077
41884.76522
41884.73905
41884.71219
41884.68454
41884.65601
41884.62649
41884.59587
41884.56403
41884.53086
41884.49635
41884.46091
41884.42396
41884.3852
41884.34482
41884.30289
41884.2595
41884.21483
41884.16914
41884.12275
41884.07614
41884.02989
41883.98472
41883.94154
41883.90139
41883.86549
41883.83517
41883.81187
41883.79701
41883.79195
41883.79789
41883.81566
41883.84569
41883.88785
41883.94145
41884.00528
41884.07773
41884.15693
41884.24081
41884.32698
41884.41269
41884.49501
41884.57142
41884.64034
41884.70113
41884.754
41884.79941
41884.83949
41884.87502
41884.90564
41884.93252
41884.95649
41884.97827
41884.99838
41885.01723
41885.03507
41885.05208
41885.06838
41885.08401
41885.099
41885.11332
41885.12696
41885.13991
41885.15215
41885.16366
41885.17443
41885.18443
41885.19368
41885.2022
41885.21001
41885.21712
41885.2236
41885.22947
41885.23475
41885.23949
41885.24375
41885.24753
41885.25084
41885.25371
41885.25619
41885.25831
41885.26007
41885.26151
41885.26265
41885.26352
41885.26412
41885.26446
41885.26461
41885.26461
41885.26449
41885.26419
41885.26374
41885.26327
41885.2627
41885.26203
41883.93209
41883.92679
41883.92101
41883.91545
41883.90994
41883.90478
41883.90042
41883.89733
41883.89609
41883.89739
41883.90199
41883.91079
41883.92476
41883.94493
41883.97235
41884.00805
41884.05288
41884.10741
41884.17178
41884.24552
41884.3274
41884.41536
41884.50662
41884.59785
41884.68555
41884.76658
41884.83842
41884.89941
41884.94876
41884.98644
41885.01297
41885.02926
41885.03778
41885.03822
41885.03102
41885.01928
41885.00393
41884.98567
41884.96535
41884.9435
41884.92059
41884.89692
41884.87275
41884.8482
41884.82333
41884.79814
41884.77262
41884.74666
41884.72013
41884.6929
41884.6648
41884.63571
41884.60549
41884.574
41884.54112
41884.50672
41884.47077
41884.43341
41884.39445
41884.35327
41884.31016
41884.26523
41884.21859
41884.17048
41884.1212
41884.07117
41884.02099
41883.97141
41883.92337
41883.87805
41883.8368
41883.80118
41883.77291
41883.75375
41883.74544
41883.74953
41883.76718
41883.799
41883.8449
41883.90404
41883.97493
41884.05566
41884.14409
41884.23795
41884.33451
41884.43028
41884.52123
41884.6039
41884.6764
41884.7383
41884.7903
41884.83321
41884.87113
41884.90398
41884.93071
41884.95399
41884.97471
41884.9936
41885.01121
41885.02796
41885.0441
41885.05974
41885.07496
41885.08977
41885.10415
41885.11804
41885.13136
41885.14408
41885.15616
41885.16754
41885.1782
41885.18809
41885.19723
41885.20562
41885.21327
41885.22023
41885.22654
41885.23224
41885.23735
41885.24187
41885.2459
41885.24947
41885.25259
41885.25528
41885.25757
41885.25951
41885.26112
41885.26242
41885.26343
41885.26418
41885.26469
41885.26497
41885.26504
41885.26494
41885.26473
41885.26442
41885.26397
41885.26345
41885.26285
41885.26218
41883.93233
41883.92698
41883.92065
41883.91399
41883.9069
41883.89963
41883.89264
41883.88643
41883.88161
41883.87891
41883.87919
41883.88348
41883.89293
41883.90884
41883.93258
41883.96556
41884.00908
41884.06416
41884.13136
41884.21045
41884.30022
41884.39831
41884.5012
41884.60456
41884.70379
41884.79475
41884.87429
41884.94046
41884.99252
41885.03073
41885.05605
41885.06982
41885.07498
41885.07171
41885.06055
41885.04493
41885.02594
41885.00441
41884.98126
41884.95701
41884.93222
41884.90696
41884.88167
41884.85641
41884.83116
41884.80586
41884.78046
41884.75481
41884.72876
41884.70212
41884.67467
41884.64622
41884.6166
41884.58563
41884.55316
41884.51902
41884.48298
41884.44534
41884.40576
41884.36407
41884.31973
41884.27314
41884.22437
41884.17358
41884.12101
41884.06706
41884.01229
41883.95746
41883.90357
41883.85189
41883.80395
41883.76158
41883.72683
41883.7019
41883.68904
41883.69032
41883.70736
41883.74106
41883.79135
41883.85716
41883.93656
41884.02719
41884.12672
41884.23283
41884.34259
41884.4515
41884.55365
41884.64401
41884.7204
41884.78278
41884.83325
41884.87279
41884.9068
41884.93528
41884.95759
41884.97671
41884.99371
41885.00936
41885.02424
41885.03875
41885.05312
41885.06742
41885.08162
41885.09568
41885.10953
41885.12306
41885.13616
41885.14873
41885.1607
41885.17201
41885.18259
41885.19241
41885.20144
41885.20971
41885.21723
41885.22402
41885.23014
41885.23563
41885.24054
41885.24487
41885.24863
41885.25193
41885.25481
41885.25728
41885.25936
41885.26109
41885.26252
41885.26365
41885.26449
41885.26509
41885.26546
41885.26564
41885.26563
41885.26545
41885.26514
41885.26476
41885.26428
41885.26375
41885.26314
41885.26248
41883.93339
41883.92801
41883.9211
41883.91321
41883.90432
41883.89466
41883.88467
41883.87484
41883.86582
41883.85837
41883.85343
41883.85216
41883.85592
41883.86628
41883.88502
41883.91403
41883.95521
41884.0102
41884.08018
41884.1654
41884.26481
41884.3757
41884.49362
41884.61277
41884.72686
41884.83035
41884.91924
41884.99132
41885.04604
41885.08416
41885.10732
41885.11759
41885.11771
41885.10905
41885.0932
41885.07297
41885.04967
41885.02429
41884.9979
41884.971
41884.94394
41884.91699
41884.89049
41884.86446
41884.83885
41884.81354
41884.78839
41884.76323
41884.73784
41884.71199
41884.68543
41884.65789
41884.62913
41884.59893
41884.56709
41884.53341
41884.49764
41884.45963
41884.41974
41884.37739
41884.33203
41884.28375
41884.2327
41884.17901
41884.12284
41884.0645
41884.00451
41883.94361
41883.88281
41883.82347
41883.76731
41883.71645
41883.67338
41883.64085
41883.62178
41883.61895
41883.63467
41883.6703
41883.72582
41883.7997
41883.88926
41883.99145
41884.10386
41884.22462
41884.35103
41884.47736
41884.59413
41884.69368
41884.77386
41884.83504
41884.88313
41884.91737
41884.94538
41884.96765
41884.98476
41884.99913
41885.01199
41885.02419
41885.03627
41885.04857
41885.06125
41885.07433
41885.0877
41885.10121
41885.1147
41885.12805
41885.14108
41885.15363
41885.16561
41885.17692
41885.1875
41885.19729
41885.20626
41885.21442
41885.22181
41885.22845
41885.23438
41885.23965
41885.24432
41885.24841
41885.25193
41885.25493
41885.2575
41885.25972
41885.26155
41885.26305
41885.26424
41885.26517
41885.26583
41885.26625
41885.26645
41885.26647
41885.26635
41885.26608
41885.26569
41885.26522
41885.2647
41885.26415
41885.26353
41885.26289
41883.93585
41883.93048
41883.92298
41883.91381
41883.9029
41883.89057
41883.87719
41883.86325
41883.84937
41883.83636
41883.8252
41883.81716
41883.81381
41883.81704
41883.82905
41883.85234
41883.88956
41883.94326
41884.01553
41884.10746
41884.21841
41884.34543
41884.48284
41884.62264
41884.756
41884.87529
41884.9754
41885.05394
41885.11085
41885.14771
41885.16711
41885.17204
41885.16574
41885.15052
41885.12866
41885.10285
41885.07453
41885.04477
41885.01469
41884.98481
41884.95533
41884.92662
41884.89888
41884.87205
41884.84608
41884.82084
41884.7961
41884.77162
41884.74712
41884.72233
41884.69692
41884.67058
41884.64299
41884.61388
41884.58296
41884.54999
41884.51473
41884.47688
41884.43653
41884.39351
41884.3476
41884.29758
41884.24421
41884.1875
41884.12748
41884.06438
41883.9986
41883.93081
41883.86202
41883.79363
41883.72752
41883.66613
41883.61245
41883.56997
41883.5425
41883.53383
41883.54725
41883.58482
41883.64665
41883.73042
41883.83201
41883.94721
41884.07374
41884.21122
41884.35847
41884.50857
41884.64486
41884.75478
41884.83697
41884.89571
41884.93963
41884.96472
41884.98509
41884.99973
41885.01041
41885.01935
41885.02778
41885.03648
41885.04588
41885.05619
41885.06746
41885.07961
41885.09246
41885.10574
41885.11919
41885.13261
41885.14579
41885.15854
41885.17069
41885.18215
41885.19283
41885.20267
41885.21163
41885.21972
41885.227
41885.23349
41885.23923
41885.24427
41885.24867
41885.25249
41885.25574
41885.25846
41885.2607
41885.26258
41885.26414
41885.26536
41885.26629
41885.26696
41885.26741
41885.26763
41885.26764
41885.26748
41885.2672
41885.26682
41885.26633
41885.26578
41885.26521
41885.26463
41885.26401
41885.26339
41883.94035
41883.93503
41883.92694
41883.91643
41883.90338
41883.88813
41883.87102
41883.85249
41883.83312
41883.81369
41883.79523
41883.77908
41883.76698
41883.76112
41883.76418
41883.77934
41883.81023
41883.86059
41883.93391
41884.03266
41884.15716
41884.30445
41884.46731
41884.63448
41884.79306
41884.93229
41885.04566
41885.13087
41885.18884
41885.22253
41885.23593
41885.23328
41885.21863
41885.19528
41885.16609
41885.1337
41885.0997
41885.06514
41885.03107
41884.99797
41884.96599
41884.93549
41884.90653
41884.87896
41884.85269
41884.82757
41884.80336
41884.77974
41884.75639
41884.73293
41884.70899
41884.68417
41884.6581
41884.63042
41884.60078
41884.56888
41884.53441
41884.49703
41884.45648
41884.41334
41884.3667
41884.31514
41884.25959
41884.19988
41884.13592
41884.06779
41883.99577
41883.92037
41883.84252
41883.76361
41883.68563
41883.61132
41883.54423
41883.48876
41883.44993
41883.43299
41883.44267
41883.48222
41883.55194
41883.64811
41883.76388
41883.89277
41884.03297
41884.18815
41884.36097
41884.54557
41884.70896
41884.83032
41884.91164
41884.9647
41884.99605
41885.01443
41885.02432
41885.02908
41885.03231
41885.03544
41885.03938
41885.04473
41885.05176
41885.06049
41885.07079
41885.08246
41885.09521
41885.10868
41885.1225
41885.13635
41885.14999
41885.16319
41885.17576
41885.18754
41885.19845
41885.20845
41885.2175
41885.22558
41885.23277
41885.23912
41885.24468
41885.24949
41885.2536
41885.25711
41885.26004
41885.26244
41885.26437
41885.26589
41885.26708
41885.26801
41885.26865
41885.26903
41885.2692
41885.26919
41885.26899
41885.26864
41885.26817
41885.26764
41885.26705
41885.26641
41885.26577
41885.26516
41885.26454
41885.26394
41883.94758
41883.94238
41883.93372
41883.92181
41883.90657
41883.88825
41883.86713
41883.84359
41883.81813
41883.79148
41883.76462
41883.73891
41883.7162
41883.69893
41883.69025
41883.69409
41883.71522
41883.75898
41883.83088
41883.93563
41884.07548
41884.2481
41884.44463
41884.64878
41884.84078
41885.00514
41885.1338
41885.22521
41885.28213
41885.30971
41885.31401
41885.3009
41885.27551
41885.24223
41885.20439
41885.16448
41885.1242
41885.08458
41885.04635
41885.01004
41884.97558
41884.94334
41884.91323
41884.88504
41884.85859
41884.83369
41884.8101
41884.78749
41884.76548
41884.74363
41884.72148
41884.69856
41884.67438
41884.64852
41884.62056
41884.59012
41884.55683
41884.52031
41884.48017
41884.4371
41884.38961
41884.33706
41884.27957
41884.21705
41884.14926
41884.07607
41883.99754
41883.91399
41883.82612
41883.73521
41883.64327
41883.55328
41883.46938
41883.39701
41883.3428
41883.31407
41883.31782
41883.35928
41883.43945
41883.55202
41883.68456
41883.82612
41883.97668
41884.14681
41884.34949
41884.58912
41884.79208
41884.92461
41884.99826
41885.03963
41885.05447
41885.06201
41885.05991
41885.05359
41885.04901
41885.0464
41885.04611
41885.04843
41885.05344
41885.061
41885.0708
41885.08245
41885.09554
41885.10962
41885.12423
41885.13892
41885.15338
41885.16735
41885.1806
41885.19294
41885.20428
41885.21457
41885.2238
41885.23196
41885.2391
41885.24532
41885.25069
41885.25527
41885.25909
41885.26226
41885.26483
41885.26688
41885.26844
41885.26961
41885.27042
41885.27096
41885.27127
41885.27134
41885.27121
41885.27091
41885.27047
41885.2699
41885.26924
41885.26854
41885.26781
41885.26707
41885.26636
41885.26571
41885.26509
41885.26452
41883.95829
41883.95329
41883.94412
41883.93086
41883.91342
41883.89195
41883.86665
41883.8378
41883.80577
41883.77116
41883.73485
41883.69812
41883.66281
41883.6315
41883.60771
41883.59611
41883.60272
41883.63489
41883.7009
41883.80905
41883.96517
41884.16909
41884.41076
41884.66614
41884.90332
41885.09921
41885.24475
41885.34053
41885.39271
41885.40988
41885.40089
41885.3737
41885.33478
41885.28965
41885.24197
41885.19384
41885.14688
41885.10206
41885.05986
41885.02058
41884.98384
41884.95007
41884.91899
41884.8903
41884.86381
41884.83927
41884.81641
41884.79491
41884.77437
41884.75434
41884.73427
41884.71359
41884.69172
41884.66812
41884.64229
41884.61376
41884.58211
41884.54694
41884.50782
41884.46468
41884.41699
41884.36416
41884.30503
41884.24006
41884.16877
41884.09076
41884.00578
41883.91382
41883.81523
41883.71099
41883.60294
41883.49415
41883.38929
41883.29497
41883.21986
41883.1742
41883.16847
41883.2114
41883.30616
41883.44233
41883.59519
41883.74707
41883.89555
41884.07038
41884.30528
41884.63663
41884.89895
41885.0427
41885.09799
41885.11601
41885.11675
41885.10798
41885.09172
41885.07431
41885.06206
41885.05393
41885.04964
41885.04912
41885.05223
41885.05872
41885.06815
41885.07998
41885.09366
41885.10862
41885.1243
41885.14018
41885.15581
41885.17086
41885.18508
41885.19825
41885.21022
41885.22096
41885.23048
41885.2388
41885.24597
41885.25209
41885.25728
41885.2616
41885.26512
41885.26793
41885.27012
41885.27176
41885.27292
41885.27367
41885.27409
41885.27423
41885.27412
41885.27385
41885.27339
41885.27279
41885.27206
41885.27125
41885.27038
41885.26948
41885.26859
41885.26774
41885.26696
41885.26626
41885.26563
41885.26509
41883.97322
41883.96856
41883.95904
41883.94452
41883.92494
41883.90036
41883.87086
41883.83655
41883.79766
41883.75457
41883.70794
41883.65886
41883.60897
41883.56079
41883.51801
41883.48586
41883.47159
41883.48478
41883.53737
41883.64303
41883.81409
41884.0555
41884.35859
41884.68775
41884.98715
41885.22225
41885.38483
41885.48079
41885.52212
41885.52255
41885.49482
41885.44931
41885.39382
41885.33496
41885.2765
41885.21987
41885.16632
41885.11655
41885.07087
41885.02911
41884.99048
41884.95568
41884.92403
41884.89507
41884.86865
41884.84456
41884.82251
41884.80219
41884.78322
41884.76513
41884.74733
41884.72919
41884.71001
41884.68911
41884.66589
41884.63977
41884.61026
41884.57691
41884.53922
41884.49684
41884.44978
41884.39676
41884.33667
41884.26994
41884.19583
41884.11362
41884.02267
41883.92252
41883.81297
41883.69445
41883.56831
41883.4374
41883.30666
41883.18384
41883.08012
41883.00981
41882.9886
41883.03109
41883.1466
41883.32047
41883.5004
41883.65047
41883.7733
41883.93323
41884.20357
41884.69723
41885.061
41885.2113
41885.22034
41885.20652
41885.18277
41885.15427
41885.12404
41885.09727
41885.07781
41885.06392
41885.05513
41885.05116
41885.05174
41885.05653
41885.06504
41885.07667
41885.0907
41885.10642
41885.12319
41885.14037
41885.15736
41885.17372
41885.18915
41885.20337
41885.21621
41885.22758
41885.23752
41885.24609
41885.25335
41885.25942
41885.26442
41885.26848
41885.27168
41885.27411
41885.27587
41885.27707
41885.27778
41885.27809
41885.27805
41885.27774
41885.27723
41885.27654
41885.27571
41885.27477
41885.27373
41885.27264
41885.27153
41885.27042
41885.26935
41885.26838
41885.26752
41885.26677
41885.26613
41885.26561
41883.99316
41883.989
41883.97932
41883.9637
41883.94218
41883.91468
41883.88114
41883.84148
41883.79571
41883.74393
41883.68646
41883.624
41883.55781
41883.49003
41883.42412
41883.36546
41883.32215
41883.30596
41883.33302
41883.42462
41883.60448
41883.88786
41884.27616
41884.7153
41885.10289
41885.38598
41885.56238
41885.64994
41885.67062
41885.6455
41885.59208
41885.52351
41885.44858
41885.3745
41885.30481
41885.23997
41885.18057
41885.12677
41885.07865
41885.03528
41884.99534
41884.96026
41884.92876
41884.89987
41884.87371
41884.85013
41884.82889
41884.80973
41884.79231
41884.77619
41884.76077
41884.74536
41884.72916
41884.71138
41884.69125
41884.66807
41884.64125
41884.61028
41884.57462
41884.53386
41884.48795
41884.43534
41884.37522
41884.30772
41884.23184
41884.14654
41884.05071
41883.94325
41883.82325
41883.69022
41883.54459
41883.3884
41883.22625
41883.06661
41882.92339
41882.81661
41882.76971
41882.80645
41882.95278
41883.19957
41883.41089
41883.54424
41883.59118
41883.68101
41883.7571
41884.68291
41885.4341
41885.48945
41885.37711
41885.32014
41885.26624
41885.21544
41885.1705
41885.13559
41885.10781
41885.08632
41885.0709
41885.0614
41885.05755
41885.05896
41885.06511
41885.07531
41885.08877
41885.1046
41885.122
41885.1402
41885.15848
41885.17622
41885.19296
41885.20838
41885.22225
41885.23442
41885.24491
41885.25381
41885.26123
41885.26728
41885.27212
41885.2759
41885.27876
41885.28078
41885.28209
41885.2828
41885.28301
41885.28282
41885.28229
41885.2815
41885.28051
41885.27938
41885.27814
41885.27679
41885.27542
41885.27403
41885.27266
41885.27132
41885.27007
41885.26896
41885.268
41885.2672
41885.26654
41885.26605
41884.01884
41884.01533
41884.00572
41883.98932
41883.96619
41883.93615
41883.89897
41883.85437
41883.80208
41883.74184
41883.67353
41883.59728
41883.51369
41883.42412
41883.33122
41883.23972
41883.15764
41883.09809
41883.08103
41883.13749
41883.31019
41883.63269
41884.13859
41884.75177
41885.26814
41885.60246
41885.78712
41885.8514
41885.83636
41885.77357
41885.68628
41885.58967
41885.49311
41885.40329
41885.32286
41885.25092
41885.1872
41885.13105
41885.08225
41885.03864
41884.99847
41884.96404
41884.93364
41884.90536
41884.87975
41884.85679
41884.83632
41884.81819
41884.80217
41884.78791
41884.77483
41884.76222
41884.74921
41884.73486
41884.71825
41884.69853
41884.67498
41884.64699
41884.61404
41884.5757
41884.53163
41884.48032
41884.42125
41884.35427
41884.27812
41884.19142
41884.09251
41883.9796
41883.85077
41883.70427
41883.53897
41883.3552
41883.15605
41882.94946
41882.75161
41882.58996
41882.49954
41882.51814
41882.70604
41883.09727
41883.36838
41883.48657
41883.41822
41883.14871
41882.33934
41884.76203
41886.17147
41885.85726
41885.47257
41885.4104
41885.36262
41885.30135
41885.24739
41885.20304
41885.16375
41885.13082
41885.10506
41885.08663
41885.07537
41885.07081
41885.07235
41885.07922
41885.09052
41885.10521
41885.12231
41885.14086
41885.15999
41885.17887
41885.19686
41885.21349
41885.22845
41885.24153
41885.25267
41885.26198
41885.26961
41885.27569
41885.28038
41885.28388
41885.28635
41885.28793
41885.28875
41885.28892
41885.28858
41885.28783
41885.28677
41885.28545
41885.28395
41885.28232
41885.28061
41885.27886
41885.27711
41885.27536
41885.27369
41885.27213
41885.27071
41885.26944
41885.26837
41885.26751
41885.26684
41885.26638
41884.05099
41884.04828
41884.03898
41884.0222
41883.99796
41883.96596
41883.92582
41883.87705
41883.81906
41883.75121
41883.67281
41883.58329
41883.48231
41883.36998
41883.2474
41883.11743
41882.98625
41882.86604
41882.77794
41882.76149
41882.88965
41883.21989
41883.8946
41884.80464
41885.50764
41885.89419
41886.05896
41886.08113
41886.01308
41885.89782
41885.76729
41885.63862
41885.51954
41885.41505
41885.32577
41885.24905
41885.18344
41885.12742
41885.08054
41885.03832
41884.99954
41884.96766
41884.93933
41884.91224
41884.88761
41884.86548
41884.84576
41884.82847
41884.81357
41884.80087
41884.78992
41884.78001
41884.77023
41884.75952
41884.74677
41884.73096
41884.71121
41884.68684
41884.65728
41884.62215
41884.5808
41884.53184
41884.47507
41884.41019