/*--------------------------------*- C++ -*----------------------------------*\
| =========                 |                                                 |
| \\      /  F ield         | OpenFOAM: The Open Source CFD Toolbox           |
|  \\    /   O peration     | Version:  2412                                  |
|   \\  /    A nd           | Website:  www.openfoam.com                      |
|    \\/     M anipulation  |                                                 |
\*---------------------------------------------------------------------------*/
FoamFile
{
    version     2.0;
    format      ascii;
    arch        "LSB;label=32;scalar=64";
    class       surfaceScalarField;
    location    "0.1";
    object      phi;
}
// * * * * * * * * * * * * * * * * * * * * * * * * * * * * * * * * * * * * * //

dimensions      [1 0 -1 0 0 0 0];

oriented        oriented;

internalField   nonuniform List<scalar> 
23538
(
-9.651861689e-11
8.304840093e-11
-2.850991135e-10
1.756467845e-10
-4.980781088e-10
2.014948e-10
-6.969270957e-10
1.885701437e-10
-8.637135174e-10
1.582990572e-10
-9.901374479e-10
1.203503839e-10
-1.071597996e-09
7.823159311e-11
-1.104350566e-09
3.26387476e-11
-1.08443333e-09
-1.671605337e-11
-1.007522156e-09
-7.023783463e-11
-8.691544058e-10
-1.281168023e-10
-6.650961293e-10
-1.901962434e-10
-3.917145025e-10
-2.559485178e-10
-4.634724154e-11
-3.244707418e-10
3.723262614e-10
-3.944809737e-10
8.639363998e-10
-4.643361915e-10
1.426098616e-09
-5.320617673e-10
2.054155529e-09
-5.954093451e-10
2.74100868e-09
-6.519445235e-10
3.477067715e-09
-6.991681966e-10
4.250353677e-09
-7.346639992e-10
5.046772906e-09
-7.562705428e-10
5.850552394e-09
-7.622482839e-10
6.644821299e-09
-7.514235487e-10
7.412296345e-09
-7.232980373e-10
8.136017673e-09
-6.781086207e-10
8.800073129e-09
-6.168078878e-10
9.390234344e-09
-5.40999083e-10
9.894490948e-09
-4.52826488e-10
1.030342002e-08
-3.548206621e-10
1.060962882e-08
-2.489815211e-10
1.080721951e-08
-1.367848981e-10
1.089368303e-08
-2.164635093e-11
1.087074579e-08
9.214457514e-11
1.074313686e-08
2.015037513e-10
1.051787472e-08
3.040238716e-10
1.020379513e-08
3.977478394e-10
9.811128737e-09
4.811190202e-10
9.350955636e-09
5.530552799e-10
8.835253588e-09
6.1273769e-10
8.275817145e-09
6.598730115e-10
7.684448816e-09
6.943891567e-10
7.072500198e-09
7.166126978e-10
6.450649069e-09
7.271361281e-10
5.828730185e-09
7.267605387e-10
5.21562778e-09
7.164464295e-10
4.619236562e-09
6.972532426e-10
4.046478727e-09
6.702619023e-10
3.503393667e-09
6.365087401e-10
2.995247631e-09
5.969382181e-10
2.526657256e-09
5.523980474e-10
2.101657663e-09
5.036656867e-10
1.723735618e-09
4.514862992e-10
1.395717774e-09
3.966958466e-10
1.119280936e-09
3.406013118e-10
8.947937656e-10
2.846500138e-10
7.218364881e-10
2.297359136e-10
5.99326214e-10
1.766144123e-10
5.251985083e-10
1.26332743e-10
4.963089653e-10
8.002424285e-11
5.084375946e-10
3.879589172e-11
5.563827944e-10
3.653393201e-12
6.34104021e-10
-2.457029979e-11
7.348545202e-10
-4.524066731e-11
8.515864539e-10
-5.801132876e-11
9.770715216e-10
-6.275071337e-11
1.104101707e-09
-5.959224404e-11
1.225712301e-09
-4.888279386e-11
1.335310205e-09
-3.112742496e-11
1.426757979e-09
-6.934355128e-12
1.494411243e-09
2.302870375e-11
1.533127449e-09
5.807864565e-11
1.538260558e-09
9.753124391e-11
1.505679765e-09
1.40703438e-10
1.431813723e-09
1.868838216e-10
1.313755238e-09
2.352982148e-10
1.149411764e-09
2.850652706e-10
9.377023705e-10
3.351555575e-10
6.787986797e-10
3.843546664e-10
3.743637389e-10
4.312442713e-10
2.776823629e-11
4.742297358e-10
-3.557721734e-10
5.115867779e-10
-7.691326012e-10
5.415340338e-10
-1.203345537e-09
5.623324873e-10
-1.647814717e-09
5.724268673e-10
-2.09067785e-09
5.705897721e-10
-2.519307189e-09
5.560526505e-10
-2.920912266e-09
5.28621531e-10
-3.28320568e-09
4.88733045e-10
-3.595085147e-09
4.37469598e-10
-3.847162128e-09
3.765071019e-10
-4.032281629e-09
3.080056339e-10
-4.145988867e-09
2.345971196e-10
-4.186880016e-09
1.593132558e-10
-4.156667164e-09
8.526748954e-11
-4.059788409e-09
1.52095347e-11
-3.902723032e-09
-4.878084296e-11
-3.693460151e-09
-1.05141537e-10
-3.441188558e-09
-1.5260543e-10
-3.155902055e-09
-1.903056261e-10
-2.847980804e-09
-2.177846945e-10
-2.527732922e-09
-2.350602632e-10
-2.204998655e-09
-2.425406781e-10
-1.888785834e-09
-2.410192761e-10
-1.586951221e-09
-2.316167415e-10
-1.30597485e-09
-2.156861422e-10
-1.050827062e-09
-1.947365058e-10
-8.249144704e-10
-1.703326042e-10
-6.301305121e-10
-1.439986194e-10
-4.669834244e-10
-1.17139884e-10
-3.347645277e-10
-9.099128776e-11
-2.317630753e-10
-6.657911713e-11
-1.554947821e-10
-4.469028124e-11
-1.029551132e-10
-2.586352872e-11
-7.084472985e-11
-1.039513046e-11
-5.577112337e-11
1.620926423e-12
-5.440069255e-11
1.025640104e-11
-6.357741651e-11
1.570686676e-11
-8.041219912e-11
1.826547224e-11
-1.0233632e-10
1.828362128e-11
-1.271076809e-10
1.61229791e-11
-1.528083236e-10
1.21454882e-11
-1.77855921e-10
6.722221376e-12
-2.009846865e-10
2.067509229e-13
-2.212015984e-10
-7.099162584e-12
-2.377459404e-10
-1.493330087e-11
-2.500666304e-10
-2.306198312e-11
-2.577773752e-10
-3.130503845e-11
-2.605780884e-10
-3.956296651e-11
-2.581799209e-10
-4.781647911e-11
-2.502267213e-10
-5.612474552e-11
-2.362241188e-10
-6.463430234e-11
-2.15485498e-10
-7.353250044e-11
-1.872281255e-10
-8.292178208e-11
-1.509085858e-10
-9.256977029e-11
-1.06999559e-10
-1.014662744e-10
-5.840189006e-11
-1.072005989e-10
-1.251789216e-11
-1.052841478e-10
1.597852138e-11
-8.844089766e-11
-4.422210196e-11
-1.884984817e-10
2.589234482e-10
-5.24696796e-10
4.990210211e-10
-8.845720435e-10
5.501466946e-10
-1.199411876e-09
4.94007139e-10
-1.43342797e-09
3.849607369e-10
-1.5679212e-09
2.499120212e-10
-1.591240764e-09
9.946030974e-11
-1.493847805e-09
-6.365331027e-11
-1.266393123e-09
-2.396364236e-10
-8.994625386e-10
-4.290502925e-10
-3.839359457e-10
-6.318712867e-10
2.88367692e-10
-8.470701063e-10
1.123913559e-09
-1.072483726e-09
2.126641317e-09
-1.304746958e-09
3.297182135e-09
-1.539344902e-09
4.632156308e-09
-1.770673472e-09
6.123549723e-09
-1.992169844e-09
7.758243506e-09
-2.196508703e-09
9.517746648e-09
-2.37589395e-09
1.137819666e-08
-2.522443585e-09
1.331066585e-08
-2.628646358e-09
1.528180545e-08
-2.68786858e-09
1.72548149e-08
-2.694852435e-09
1.919069702e-08
-2.64613676e-09
2.104969058e-08
-2.540367011e-09
2.279279893e-08
-2.378434276e-09
2.438326645e-08
-2.163430719e-09
2.578790297e-08
-1.900418912e-09
2.697810958e-08
-1.596044526e-09
2.793053987e-08
-1.258013899e-09
2.862825831e-08
-8.946860744e-10
2.90598724e-08
-5.130622909e-10
2.921887781e-08
-1.214502049e-10
2.910592922e-08
2.686565324e-10
2.87293222e-08
6.464553593e-10
2.810328018e-08
1.003500996e-09
2.724688202e-08
1.332834399e-09
2.618313446e-08
1.628797585e-09
2.493785625e-08
1.887151912e-09
2.353956566e-08
2.104746317e-09
2.201728014e-08
2.279962313e-09
2.040067472e-08
2.412102013e-09
1.871903028e-08
2.501730618e-09
1.700056128e-08
2.550383811e-09
1.527187593e-08
2.560408195e-09
1.355756538e-08
2.534771977e-09
1.187994381e-08
2.47685282e-09
1.025894188e-08
2.390218256e-09
8.712125405e-09
2.278415289e-09
7.254811458e-09
2.14482039e-09
5.900234983e-09
1.992571779e-09
4.65966814e-09
1.824620903e-09
3.542427979e-09
1.64388824e-09
2.555693536e-09
1.453543769e-09
1.704104188e-09
1.257617146e-09
9.889752542e-10
1.061027171e-09
4.084811556e-10
8.679380143e-10
-4.13907474e-11
6.81389628e-10
-3.67234269e-10
5.050807162e-10
-5.783473451e-10
3.429012003e-10
-6.866358088e-10
1.986040337e-10
-7.063411914e-10
7.554039079e-11
-6.536075485e-10
-2.355239566e-11
-5.460611873e-10
-9.670089165e-11
-4.018658389e-10
-1.4290143e-10
-2.393101133e-10
-1.619862554e-10
-7.621251348e-11
-1.546918595e-10
7.063722271e-11
-1.225096619e-10
1.858714191e-10
-6.750084351e-11
2.557892514e-10
7.894042527e-12
2.684846816e-10
1.010433934e-10
2.138548594e-10
2.092715233e-10
8.356332515e-11
3.299567498e-10
-1.29030024e-10
4.605548985e-10
-4.288979189e-10
5.9855781e-10
-8.19304212e-10
7.413938194e-10
-1.301659875e-09
8.862959936e-10
-1.875283824e-09
1.03015886e-09
-2.537076073e-09
1.169413895e-09
-3.28113655e-09
1.299950972e-09
-4.098396254e-09
1.417136944e-09
-4.976330406e-09
1.515922095e-09
-5.898827427e-09
1.591050268e-09
-6.846268226e-09
1.637360102e-09
-7.795884751e-09
1.650186673e-09
-8.722425769e-09
1.625806906e-09
-9.599122638e-09
1.561883916e-09
-1.039891191e-08
1.457842455e-09
-1.109580545e-08
1.315095056e-09
-1.16663469e-08
1.137100453e-09
-1.209082718e-08
9.292458546e-10
-1.23544422e-08
6.985086496e-10
-1.244832322e-08
4.533918231e-10
-1.237034785e-08
2.036649798e-10
-1.212518711e-08
-4.074410135e-11
-1.172334901e-08
-2.712067355e-10
-1.118002708e-08
-4.808942703e-10
-1.051375922e-08
-6.648160214e-10
-9.745911674e-09
-8.188011811e-10
-8.900387354e-09
-9.393526098e-10
-8.002436971e-09
-1.024585368e-09
-7.077498218e-09
-1.074253744e-09
-6.150053951e-09
-1.089657993e-09
-5.242682132e-09
-1.073446691e-09
-4.375299615e-09
-1.029361706e-09
-3.564596672e-09
-9.619644314e-10
-2.823668263e-09
-8.76345507e-10
-2.161861156e-09
-7.778227331e-10
-1.584806127e-09
-6.71649082e-10
-1.094637465e-09
-5.627459461e-10
-6.903571197e-10
-4.555071581e-10
-3.682982677e-10
-3.536531622e-10
-1.226660192e-10
-2.601224986e-10
5.388831576e-11
-1.770301006e-10
1.697208832e-10
-1.056887545e-10
2.336615584e-10
-4.667391542e-11
2.545672641e-10
6.535663523e-14
2.409850998e-10
3.504388385e-11
2.009206849e-10
5.912159964e-11
1.416699258e-10
7.338516746e-11
6.971997099e-11
7.903415965e-11
-9.280676304e-12
7.730645189e-11
-9.051977735e-11
6.94463829e-11
-1.699995197e-10
5.665383815e-11
-2.444817963e-10
4.002329854e-11
-3.114056249e-10
2.052286695e-11
-3.687815767e-10
-1.017575445e-12
-4.150806609e-10
-2.39392662e-11
-4.490910406e-10
-4.781088827e-11
-4.697398816e-10
-7.246193692e-11
-4.759140275e-10
-9.798955216e-11
-4.663134398e-10
-1.247255377e-10
-4.39422723e-10
-1.530731227e-10
-3.937719816e-10
-1.83101483e-10
-3.286749597e-10
-2.137879864e-10
-2.457316239e-10
-2.418365895e-10
-1.512458591e-10
-2.601245766e-10
-5.954619454e-11
-2.561496217e-10
3.567298435e-12
-2.112129747e-10
-1.00725038e-10
-2.126260258e-10
4.608096295e-10
-5.762341585e-10
8.519155396e-10
-9.446014867e-10
9.088422371e-10
-1.237330739e-09
7.788360957e-10
-1.41071023e-09
5.526815374e-10
-1.439967436e-09
2.761483834e-10
-1.30848593e-09
-3.203800265e-11
-1.002509585e-09
-3.66325186e-10
-5.091370373e-10
-7.261468684e-10
1.84212406e-10
-1.111842412e-09
1.089430078e-09
-1.522792097e-09
2.216789095e-09
-1.956439028e-09
3.573910683e-09
-2.408048996e-09
5.16472648e-09
-2.870657287e-09
6.988482685e-09
-3.335130663e-09
9.038807779e-09
-3.790321322e-09
1.130293099e-08
-4.223313238e-09
1.376108952e-08
-4.619822095e-09
1.638620982e-08
-4.964759415e-09
1.914394694e-08
-5.242956786e-09
2.199312529e-08
-5.440039155e-09
2.48866198e-08
-5.543367885e-09
2.777266633e-08
-5.542961145e-09
3.059653216e-08
-5.432291333e-09
3.330244218e-08
-5.20883815e-09
3.583560174e-08
-4.874344027e-09
3.814416455e-08
-4.434721438e-09
4.01810127e-08
-3.899622299e-09
4.190520303e-08
-3.281746629e-09
4.328303363e-08
-2.595935663e-09
4.428866716e-08
-1.858333015e-09
4.49057161e-08
-1.085331692e-09
4.512494118e-08
-2.923788994e-10
4.494473973e-08
5.013759678e-10
4.437400666e-08
1.274570714e-09
4.34301196e-08
2.01016343e-09
4.213772944e-08
2.693784564e-09
4.052762847e-08
3.31344769e-09
3.86352571e-08
3.859729917e-09
3.650088522e-08
4.325460171e-09
3.416621187e-08
4.706268299e-09
3.167479907e-08
4.999733418e-09
2.907047334e-08
5.205941164e-09
2.639628001e-08
5.327037052e-09
2.369354745e-08
5.366962404e-09
2.100110578e-08
5.331123569e-09
1.835469663e-08
5.225994814e-09
1.578658636e-08
5.058696261e-09
1.332537985e-08
4.836582257e-09
1.099598641e-08
4.566907921e-09
8.81971257e-09
4.256645185e-09
6.81437666e-09
3.912478976e-09
4.994355415e-09
3.541027171e-09
3.370535333e-09
3.149187754e-09
1.950287205e-09
2.744726242e-09
7.362447963e-10
2.337488061e-09
-2.749984369e-10
1.937823004e-09
-1.091073577e-09
1.553116718e-09
-1.723451221e-09
1.19099934e-09
-2.187598059e-09
8.5940795e-10
-2.502776884e-09
5.659225455e-10
-2.691583853e-09
3.172426541e-10
-2.77926234e-09
1.187333036e-10
-2.793030647e-09
-2.587209586e-11
-2.760618346e-09
-1.148616814e-10
-2.709634784e-09
-1.483492253e-10
-2.66654405e-09
-1.283754086e-10
-2.655773865e-09
-5.859125809e-11
-2.699061232e-09
5.608870879e-11
-2.814997504e-09
2.099025345e-10
-3.018791587e-09
3.966534828e-10
-3.322229725e-09
6.100541835e-10
-3.733769801e-09
8.439848385e-10
-4.258725797e-09
1.092615036e-09
-4.899473806e-09
1.35040121e-09
-5.655615274e-09
1.611956953e-09
-6.524050654e-09
1.871835982e-09
-7.498931436e-09
2.124268084e-09
-8.571495258e-09
2.362900902e-09
-9.729791304e-09
2.580608806e-09
-1.095838292e-08
2.769433308e-09
-1.223806418e-08
2.920708742e-09
-1.354572922e-08
3.025373989e-09
-1.485444187e-08
3.074475325e-09
-1.61338145e-08
3.059856548e-09
-1.735074627e-08
2.974982306e-09
-1.847055979e-08
2.815786301e-09
-1.945848783e-08
2.581429116e-09
-2.028140077e-08
2.274773459e-09
-2.090965103e-08
1.902554616e-09
-2.131869459e-08
1.47519259e-09
-2.149057389e-08
1.006169634e-09
-2.141536794e-08
5.11967383e-10
-2.109241305e-08
1.162698804e-11
-2.053034065e-08
-4.755718469e-10
-1.974442196e-08
-9.342666263e-10
-1.875495843e-08
-1.352491304e-09
-1.758856146e-08
-1.71882925e-09
-1.627715001e-08
-2.023668841e-09
-1.485571999e-08
-2.260324895e-09
-1.336093367e-08
-2.425136371e-09
-1.182967781e-08
-2.517535449e-09
-1.029765124e-08
-2.539930559e-09
-8.798066018e-09
-2.497392842e-09
-7.360544795e-09
-2.397203466e-09
-6.010279717e-09
-2.248329732e-09
-4.767455484e-09
-2.06085006e-09
-3.646966686e-09
-1.845377447e-09
-2.658393141e-09
-1.612489042e-09
-1.806219245e-09
-1.3722256e-09
-1.090271488e-09
-1.13367001e-09
-5.063147253e-10
-9.046369643e-10
-4.675663781e-11
-6.914548786e-10
2.985895386e-10
-4.988659503e-10
5.417445002e-10
-3.300407836e-10
6.958021645e-10
-1.866446253e-10
7.742295868e-10
-6.900950357e-11
7.902560151e-10
2.361910899e-11
7.564621068e-10
9.276321829e-11
6.844948518e-10
1.404587809e-10
5.848878786e-10
1.690449804e-10
4.669651211e-10
1.810035531e-10
3.388165876e-10
1.788428688e-10
2.073194744e-10
1.650055629e-10
7.82005643e-11
1.417783023e-10
-4.388016922e-11
1.112135258e-10
-1.55175968e-10
7.509042444e-11
-2.526979968e-10
3.484365388e-11
-3.340231351e-10
-8.51707323e-12
-3.97060572e-10
-5.447147755e-11
-4.398195329e-10
-1.030108518e-10
-4.60225172e-10
-1.545462355e-10
-4.561058206e-10
-2.09576035e-10
-4.255222333e-10
-2.679429393e-10
-3.676745869e-10
-3.275012458e-10
-2.846132294e-10
-3.821090713e-10
-1.838476691e-10
-4.191736102e-10
-8.158584547e-11
-4.17465935e-10
-5.965912333e-12
-3.463223486e-10
-1.665143361e-10
-2.04207457e-10
6.562175369e-10
-5.406550314e-10
1.180167444e-09
-8.575551143e-10
1.218535075e-09
-1.069989154e-09
9.857996487e-10
-1.130586084e-09
6.101484153e-10
-1.011049288e-09
1.562980029e-10
-6.915021617e-10
-3.486973777e-10
-1.553369334e-10
-8.961015491e-10
6.130818198e-10
-1.484466757e-09
1.628899283e-09
-2.113744873e-09
2.906078148e-09
-2.782236944e-09
4.456418378e-09
-3.485333654e-09
6.28839079e-09
-4.215068747e-09
8.405923521e-09
-4.960032763e-09
1.080722472e-08
-5.705463648e-09
1.34836915e-08
-6.433475652e-09
1.641896162e-08
-7.123458327e-09
1.958819806e-08
-7.752696799e-09
2.2957701e-08
-8.29725188e-09
2.648492324e-08
-8.733104621e-09
3.011898723e-08
-9.037515105e-09
3.380174223e-08
-9.190497013e-09
3.746933082e-08
-9.176276729e-09
4.105422934e-08
-8.984529658e-09
4.448758043e-08
-8.611261729e-09
4.770165623e-08
-8.059185668e-09
5.063225737e-08
-7.337565331e-09
5.322085974e-08
-6.461561335e-09
5.541640422e-08
-5.451170628e-09
5.717665405e-08
-4.329907846e-09
5.846903321e-08
-3.123447879e-09
5.927129504e-08
-1.858426838e-09
5.957068222e-08
-5.597201046e-10
5.936443372e-08
7.435256468e-10
5.866067696e-08
2.01902554e-09
5.747780292e-08
3.239381732e-09
5.584335969e-08
4.380923048e-09
5.37928835e-08
5.423486332e-09
5.136813199e-08
6.35063686e-09
4.861795367e-08
7.149482983e-09
4.559361914e-08
7.811343979e-09
4.234975968e-08
8.330664157e-09
3.894231997e-08
8.705926572e-09
3.542718763e-08
8.939088412e-09
3.185888138e-08
9.03526166e-09
2.828936667e-08
9.002273608e-09
2.476706283e-08
8.850102039e-09
2.133606828e-08
8.590217329e-09
1.803564481e-08
8.234928481e-09
1.489994994e-08
7.796791462e-09
1.195796773e-08
7.288195858e-09
9.233586852e-09
6.721203899e-09
6.745727516e-09
6.107707628e-09
4.508383214e-09
5.45982621e-09
2.530811631e-09
4.790335899e-09
8.173544561e-10
4.114241038e-09
-6.356700926e-10
3.45011094e-09
-1.839974e-09
2.813514434e-09
-2.812168716e-09
2.217087397e-09
-3.57391937e-09
1.673886525e-09
-4.151665157e-09
1.196297954e-09
-4.575996175e-09
7.951673701e-10
-4.880708308e-09
4.790688913e-10
-5.101981196e-09
2.537292363e-10
-5.276286366e-09
1.21551535e-10
-5.439668575e-09
8.163938376e-11
-5.626179835e-09
1.29821557e-10
-5.866680402e-09
2.590870725e-10
-6.187870496e-09
4.601757954e-10
-6.611607244e-09
7.222903385e-10
-7.154540781e-09
1.033817841e-09
-7.828029986e-09
1.382993928e-09
-8.638320115e-09
1.758418134e-09
-9.586894379e-09
2.149391958e-09
-1.067094723e-08
2.5460313e-09
-1.188386964e-08
2.939178829e-09
-1.321568199e-08
3.320129515e-09
-1.465334093e-08
3.680231016e-09
-1.618088346e-08
4.010440454e-09
-1.777939666e-08
4.300927336e-09
-1.942686548e-08
4.5408463e-09
-2.109795658e-08
4.718363807e-09
-2.276386442e-08
4.820994263e-09
-2.439229206e-08
4.836239273e-09
-2.594770487e-08
4.75253525e-09
-2.73919707e-08
4.56049954e-09
-2.86854753e-08
4.254287952e-09
-2.978872986e-08
3.832873316e-09
-3.066431946e-08
3.300920687e-09
-3.127904335e-08
2.669103414e-09
-3.160578726e-08
1.953853163e-09
-3.162525255e-08
1.176434035e-09
-3.132791725e-08
3.630554011e-10
-3.071579686e-08
-4.556283548e-10
-2.980001309e-08
-1.251104869e-09
-2.859890995e-08
-2.000627984e-09
-2.713954885e-08
-2.683338133e-09
-2.545663161e-08
-3.280004289e-09
-2.359026872e-08
-3.775438621e-09
-2.158440622e-08
-4.158964995e-09
-1.94851271e-08
-4.424653898e-09
-1.733890631e-08
-4.571429276e-09
-1.519093006e-08
-4.602895864e-09
-1.308353556e-08
-4.526898268e-09
-1.105486658e-08
-4.354855738e-09
-9.137808137e-09
-4.100954697e-09
-7.359256496e-09
-3.781250039e-09
-5.739692089e-09
-3.412754825e-09
-4.2930895e-09
-3.012575871e-09
-3.02708689e-09
-2.59710405e-09
-1.943428434e-09
-2.181353197e-09
-1.038596942e-09
-1.778439002e-09
-3.045914163e-10
-1.39921897e-09
2.702028007e-10
-1.052089777e-09
7.000951248e-10
-7.429564586e-10
1.001211766e-09
-4.753345788e-10
1.190669716e-09
-2.505720604e-10
1.285758777e-09
-6.809694944e-11
1.30319218e-09
7.418156487e-11
1.258660334e-09
1.793344435e-10
1.166548103e-09
2.510240799e-10
1.03977279e-09
2.932170191e-10
8.897252169e-10
3.099781603e-10
7.262695176e-10
3.053128859e-10
5.577849342e-10
2.830188317e-10
3.912679265e-10
2.465633459e-10
2.324822362e-10
1.989851253e-10
8.614495909e-11
1.427914355e-10
-4.38538641e-11
7.983832353e-11
-1.541913768e-10
1.122785053e-11
-2.418465681e-10
-6.272042408e-11
-3.038895999e-10
-1.423164313e-10
-3.37448807e-10
-2.279936206e-10
-3.400358226e-10
-3.192103209e-10
-3.104306331e-10
-4.125577214e-10
-2.503481014e-10
-4.989744758e-10
-1.669845934e-10
-5.604111932e-10
-7.616248071e-11
-5.669938175e-10
-5.713588856e-12
-4.75958831e-10
-2.317069287e-10
-1.844897631e-10
8.347671458e-10
-4.739403159e-10
1.464446712e-09
-7.175549385e-10
1.45811243e-09
-8.291714625e-10
1.095193907e-09
-7.596113608e-10
5.408275877e-10
-4.784390323e-10
-1.216386459e-10
3.642641836e-11
-8.569148669e-10
8.039855601e-10
-1.653305197e-09
1.842356987e-09
-2.508591083e-09
3.168903121e-09
-3.42208842e-09
4.799557793e-09
-4.390793239e-09
6.747721443e-09
-5.407681229e-09
9.022959241e-09
-6.461071089e-09
1.162963488e-08
-7.534467091e-09
1.456555588e-08
-8.606657103e-09
1.782069298e-08
-9.652009019e-09
2.137604391e-08
-1.064101502e-08
2.520274436e-08
-1.154115439e-08
2.926154552e-08
-1.23181275e-08
3.350276079e-08
-1.293747747e-08
3.786681346e-08
-1.336653537e-08
4.228543354e-08
-1.357655077e-08
4.668351823e-08
-1.354480019e-08
5.098154983e-08
-1.325640935e-08
5.509842141e-08
-1.27056145e-08
5.895438982e-08
-1.189629431e-08
6.247392754e-08
-1.084171041e-08
6.558824679e-08
-9.563548386e-09
6.823738024e-08
-8.090396775e-09
7.037169713e-08
-6.455912995e-09
7.195284915e-08
-4.696866813e-09
7.295411229e-08
-2.851373821e-09
7.335977717e-08
-9.55227609e-10
7.316545493e-08
9.511596746e-10
7.23783044e-08
2.823942849e-09
7.101695062e-08
4.624197679e-09
6.911051163e-08
6.317633376e-09
6.66975286e-08
7.874469313e-09
6.382400628e-08
9.269715624e-09
6.054526388e-08
1.048318826e-08
5.69199848e-08
1.150036234e-08
5.301181213e-08
1.231101584e-08
4.888698488e-08
1.291066594e-08
4.461271645e-08
1.329995967e-08
4.025554591e-08
1.348438631e-08
3.587975443e-08
1.347381412e-08
3.154590805e-08
1.328179332e-08
2.730964403e-08
1.292470019e-08
2.322072258e-08
1.242078896e-08
1.932242383e-08
1.178927182e-08
1.565124814e-08
1.104957028e-08
1.22369028e-08
1.022086358e-08
9.102459031e-09
9.322028189e-09
6.26455627e-09
8.371983499e-09
3.733545414e-09
7.390139684e-09
1.514385078e-09
6.397204024e-09
-3.951417254e-10
5.419183975e-09
-2.009282245e-09
4.483872134e-09
-3.350242282e-09
3.612015261e-09
-4.446039124e-09
2.822556684e-09
-5.330242278e-09
2.133475043e-09
-6.04124962e-09
1.560429381e-09
-6.621164512e-09
1.115676963e-09
-7.114740948e-09
8.071468642e-10
-7.566840844e-09
6.377805087e-10
-8.021431362e-09
6.053466496e-10
-8.5195493e-09
7.025694957e-10
-9.097710671e-09
9.177152202e-10
-9.786600688e-09
1.235476097e-09
-1.061014616e-08
1.638067187e-09
-1.158499854e-08
2.106385729e-09
-1.272045125e-08
2.621115636e-09
-1.401873196e-08
3.163658541e-09
-1.547562874e-08
3.716807841e-09
-1.70813328e-08
4.265117983e-09
-1.882139609e-08
4.794930271e-09
-2.067767214e-08
5.294077629e-09
-2.262911001e-08
5.751319807e-09
-2.465230822e-08
6.15560932e-09
-2.672176943e-08
6.495343933e-09
-2.880988252e-08
6.757793414e-09
-3.088667994e-08
6.928867241e-09
-3.291951286e-08
6.993327838e-09
-3.487274295e-08
6.935439136e-09
-3.670761429e-08
6.740136575e-09
-3.838257677e-08
6.394778345e-09
-3.985424194e-08
5.891180679e-09
-4.107908051e-08
5.227730358e-09
-4.201569895e-08
4.410867982e-09
-4.262741264e-08
3.455621874e-09
-4.288427303e-08
2.385299716e-09
-4.276519565e-08
1.230041595e-09
-4.226063839e-08
2.758728637e-11
-4.137376809e-08
-1.178500685e-09
-4.011758677e-08
-2.349620289e-09
-3.851472597e-08
-3.453132192e-09
-3.65987517e-08
-4.456991915e-09
-3.441085709e-08
-5.334103104e-09
-3.199845077e-08
-6.062863408e-09
-2.941350752e-08
-6.627860106e-09
-2.671064992e-08
-7.020373515e-09
-2.394516445e-08
-7.238549552e-09
-2.117105688e-08
-7.287184417e-09
-1.843925047e-08
-7.177132797e-09
-1.579603026e-08
-6.924405356e-09
-1.328178733e-08
-6.549036881e-09
-1.093014313e-08
-6.073835393e-09
-8.767427566e-09
-5.523096935e-09
-6.812503374e-09
-4.921396488e-09
-5.076907578e-09
-4.292475612e-09
-3.565255555e-09
-3.658299707e-09
-2.275871432e-09
-3.038317763e-09
-1.201581206e-09
-2.448933625e-09
-3.306265735e-10
-1.903181933e-09
3.523570619e-10
-1.410624987e-09
8.65338858e-10
-9.774353186e-10
1.22792443e-09
-6.066340009e-10
1.460545515e-09
-2.985057871e-10
1.583598268e-09
-5.094588413e-11
1.616562075e-09
1.400263939e-10
1.577518528e-09
2.794780939e-10
1.482904422e-09
3.730295578e-10
1.347407445e-09
4.265206797e-10
1.183933552e-09
4.457610114e-10
1.003639613e-09
4.363291873e-10
8.16019813e-10
4.033870633e-10
6.290488554e-10
3.51519656e-10
4.493797897e-10
2.845831956e-10
2.825785325e-10
2.055453503e-10
1.333965559e-10
1.163413996e-10
6.056570772e-12
1.783214568e-11
-9.55155532e-11
-8.998974059e-11
-1.67614677e-10
-2.073279818e-10
-2.07021936e-10
-3.331447334e-10
-2.11814703e-10
-4.627281676e-10
-1.829015505e-10
-5.84185605e-10
-1.264344014e-10
-6.742582196e-10
-5.689419306e-11
-6.94757736e-10
-5.485814281e-13
-5.910605972e-10
-2.912938165e-10
-1.627482859e-10
9.954122979e-10
-4.017251512e-10
1.701993253e-09
-5.678363284e-10
1.624061257e-09
-5.745408869e-10
1.103699546e-09
-3.716142633e-10
3.423333091e-10
7.287870313e-11
-5.584945014e-10
7.828693908e-10
-1.555623561e-09
1.779572486e-09
-2.634782202e-09
3.083322883e-09
-3.793019997e-09
4.713703886e-09
-5.029038972e-09
6.688767506e-09
-6.338445781e-09
9.023806653e-09
-7.711602756e-09
1.172992006e-08
-9.132768171e-09
1.481246761e-08
-1.057984326e-08
1.8269513e-08
-1.202444444e-08
2.209031145e-08
-1.343223849e-08
2.625392353e-08
-1.476361999e-08
3.072808815e-08
-1.597481444e-08
3.546848878e-08
-1.701950245e-08
4.041856365e-08
-1.785098991e-08
4.551003575e-08
-1.84248569e-08
5.066425467e-08
-1.870190244e-08
5.579439012e-08
-1.865109697e-08
6.080836132e-08
-1.825215236e-08
6.561228441e-08
-1.749728992e-08
7.011406958e-08
-1.639193693e-08
7.42268195e-08
-1.495428751e-08
7.787178353e-08
-1.321388456e-08
8.098067348e-08
-1.120950588e-08
8.349729688e-08
-8.98663313e-09
8.537846841e-08
-6.594802181e-09
8.659420593e-08
-4.085124011e-09
8.712728278e-08
-1.505986322e-09
8.697224953e-08
1.090520625e-09
8.613525279e-08
3.648995772e-09
8.463501496e-08
6.117909672e-09
8.250174098e-08
8.451388566e-09
7.977610118e-08
1.060902066e-08
7.650710184e-08
1.255603016e-08
7.275512583e-08
1.426360365e-08
6.85847559e-08
1.570997513e-08
6.406709307e-08
1.687873078e-08
5.927725081e-08
1.776093198e-08
5.429256317e-08
1.835456321e-08
4.919067974e-08
1.866439755e-08
4.404760436e-08
1.870160816e-08
3.893578208e-08
1.848305749e-08
3.392236595e-08
1.803029008e-08
2.906775623e-08
1.736830015e-08
2.442455369e-08
1.652423488e-08
2.00369307e-08
1.552618117e-08
1.594043995e-08
1.440227233e-08
1.216217366e-08
1.318025077e-08
8.721122064e-09
1.188756341e-08
5.62846014e-09
1.055186751e-08
2.887869547e-09
9.201757521e-09
4.977642906e-10
7.868849486e-09
-1.554501468e-09
6.592269501e-09
-3.296554281e-09
5.407929797e-09
-4.763167676e-09
4.342046954e-09
-5.995238725e-09
3.418763017e-09
-7.039002148e-09
2.659066331e-09
-7.944817471e-09
2.079277316e-09
-8.765875721e-09
1.689687991e-09
-9.555291968e-09
1.493556856e-09
-1.036469215e-08
1.486673691e-09
-1.124169402e-08
1.657534202e-09
-1.222786442e-08
1.988104201e-09
-1.335701819e-08
2.455076447e-09
-1.465401903e-08
3.031455284e-09
-1.613412197e-08
3.688314061e-09
-1.780293232e-08
4.396511807e-09
-1.965691961e-08
5.12822425e-09
-2.168442972e-08
5.858152179e-09
-2.386708843e-08
6.564281017e-09
-2.618141258e-08
7.228142761e-09
-2.86004567e-08
7.834517742e-09
-3.109526033e-08
8.370628754e-09
-3.363590113e-08
8.824928762e-09
-3.619201945e-08
9.185735677e-09
-3.873280468e-08
9.440032136e-09
-4.122650512e-08
9.572714891e-09
-4.36396341e-08
9.566457654e-09
-4.593596547e-08
9.402211058e-09
-4.807559532e-08
9.060505111e-09
-5.001463702e-08
8.523942348e-09
-5.170584964e-08
7.780275971e-09
-5.310059755e-08
6.825945313e-09
-5.415175392e-08
5.668556953e-09
-5.48172211e-08
4.327676993e-09
-5.506201201e-08
2.834531219e-09
-5.48610574e-08
1.229382505e-09
-5.420332627e-08
-4.361652532e-10
-5.309003384e-08
-2.105774195e-09
-5.153633764e-08
-3.726449435e-09
-4.957031672e-08
-5.252239756e-09
-4.723001169e-08
-6.640811869e-09
-4.456244622e-08
-7.855823835e-09
-4.162203652e-08
-8.868076403e-09
-3.846868277e-08
-9.656527653e-09
-3.516561265e-08
-1.020902674e-08
-3.177709282e-08
-1.052261091e-08
-2.836616773e-08
-1.060324502e-08
-2.499258027e-08
-1.046505332e-08
-2.171097081e-08
-1.012911738e-08
-1.856945615e-08
-9.621975702e-09
-1.560861322e-08
-8.973951568e-09
-1.2860898e-08
-8.217458709e-09
-1.035043115e-08
-7.385398685e-09
-8.093133215e-09
-6.509723911e-09
-6.097123055e-09
-5.620223634e-09
-4.363344785e-09
-4.743551146e-09
-2.886363215e-09
-3.902537848e-09
-1.655279318e-09
-3.11573684e-09
-6.547307732e-10
-2.397231479e-09
1.340719361e-10
-1.756679891e-09
7.323062379e-10
-1.199548953e-09
1.162501609e-09
-7.275218001e-10
1.447789724e-09
-3.391331044e-10
1.611077314e-09
-3.020369259e-11
1.674030311e-09
2.0556423e-10
1.656569206e-09
3.755408251e-10
1.57668512e-09
4.875028355e-10
1.450379058e-09
5.49274515e-10
1.291668486e-09
5.684375472e-10
1.112663818e-09
5.520951154e-10
9.236975196e-10
5.066381793e-10
7.335197704e-10
4.375334029e-10
5.495404406e-10
3.491173804e-10
3.781085246e-10
2.444090291e-10
2.248146814e-10
1.250474414e-10
9.475048128e-11
-8.462767216e-12
-7.381794823e-12
-1.559299186e-10
-7.745873966e-11
-3.157398235e-10
-1.126356251e-10
-4.818856649e-10
-1.127644602e-10
-6.397660364e-10
-8.264701789e-11
-7.611714346e-10
-3.508568137e-11
-7.999655408e-10
5.701158422e-12
-6.900541615e-10
-3.440910771e-10
-1.421521523e-10
1.140125172e-09
-3.32879079e-10
1.895849985e-09
-4.234475414e-10
1.719101328e-09
-3.265674264e-10
1.013403548e-09
9.105257721e-12
1.608479053e-11
6.168879941e-10
-1.153401409e-09
1.522433531e-09
-2.44438665e-09
2.748958076e-09
-3.840326084e-09
4.31896743e-09
-5.337732773e-09
6.254341293e-09
-6.934847093e-09
8.575463403e-09
-8.625947911e-09
1.129987246e-08
-1.039871933e-08
1.444067173e-08
-1.22331373e-08
1.800478547e-08
-1.410108527e-08
2.199116606e-08
-1.596634593e-08
2.638899398e-08
-1.778494699e-08
3.117598258e-08
-1.950592573e-08
3.631691872e-08
-2.107266913e-08
4.176261876e-08
-2.24249421e-08
4.74495067e-08
-2.350167482e-08
5.33000505e-08
-2.424446182e-08
5.922422995e-08
-2.46015414e-08
6.512213896e-08
-2.453186125e-08
7.088760002e-08
-2.400866844e-08
7.64124649e-08
-2.302197237e-08
8.159108824e-08
-2.157940832e-08
8.632445118e-08
-1.970546842e-08
9.052357893e-08
-1.74393998e-08
9.411209445e-08
-1.483221961e-08
9.702785193e-08
-1.19433055e-08
9.922368499e-08
-8.836861969e-09
1.006674264e-07
-5.578717647e-09
1.013424766e-07
-2.232609671e-09
1.012434302e-07
1.138344795e-09
1.003755024e-07
4.46821091e-09
9.875794109e-08
7.691451294e-09
9.642210206e-08
1.075002853e-08
9.341042142e-08
1.359231074e-08
8.977421368e-08
1.617284808e-08
8.557794019e-08
1.84531404e-08
8.089099135e-08
2.040300218e-08
7.579065809e-08
2.199844398e-08
7.035974271e-08
2.322449142e-08
6.468468885e-08
2.407496055e-08
5.885349754e-08
2.455254393e-08
5.295347741e-08
2.466863704e-08
4.706889722e-08
2.444275845e-08
4.127869462e-08
2.39015157e-08
3.565443088e-08
2.307717343e-08
3.025864062e-08
2.200593556e-08