/*--------------------------------*- C++ -*----------------------------------*\
| =========                 |                                                 |
| \\      /  F ield         | OpenFOAM: The Open Source CFD Toolbox           |
|  \\    /   O peration     | Version:  2412                                  |
|   \\  /    A nd           | Website:  www.openfoam.com                      |
|    \\/     M anipulation  |                                                 |
\*---------------------------------------------------------------------------*/
FoamFile
{
    version     2.0;
    format      ascii;
    arch        "LSB;label=32;scalar=64";
    class       surfaceVectorField;
    location    "0.1";
    object      rhoUf;
}
// * * * * * * * * * * * * * * * * * * * * * * * * * * * * * * * * * * * * * //

dimensions      [1 -2 -1 0 0 0 0];

internalField   nonuniform List<vector> 
23538
(
(-6.75630318e-05 2.537093507e-05 0)
(-2.999883719e-05 5.813388064e-05 0)
(-0.0001995693794 3.707796525e-05 0)
(-0.0001842201187 0.0001229527492 0)
(-0.0003486546761 3.991794499e-05 0)
(-0.0003849476992 0.00014104636 0)
(-0.0004878489668 3.831597458e-05 0)
(-0.0005817789133 0.0001319991007 0)
(-0.000604599462 3.511065538e-05 0)
(-0.0007448790275 0.00011080934 0)
(-0.0006930962133 3.129619393e-05 0)
(-0.0008622887527 8.424526879e-05 0)
(-0.0007501185967 2.714729873e-05 0)
(-0.0009274518213 5.476211516e-05 0)
(-0.0007730453959 2.262243905e-05 0)
(-0.0009355694646 2.28471233e-05 0)
(-0.0007591033306 1.759117019e-05 0)
(-0.000882092136 -1.170123735e-05 0)
(-0.0007052655087 1.193015036e-05 0)
(-0.0007622522983 -4.916648419e-05 0)
(-0.0006084080839 5.561086924e-06 0)
(-0.0005711957703 -8.968176217e-05 0)
(-0.0004655672904 -1.535240241e-06 0)
(-0.0003042991247 -0.0001331373702 0)
(-0.0002742001517 -9.321742034e-06 0)
(4.248485036e-05 -0.0001791639623 0)
(-3.244306907e-05 -1.77047937e-05 0)
(0.0004721732688 -0.000227129519 0)
(0.0002606283829 -2.652915931e-05 0)
(0.0009863519866 -0.0002761366813 0)
(0.0006047554796 -3.55769792e-05 0)
(0.001584786296 -0.0003250353337 0)
(0.000998269031 -4.457053946e-05 0)
(0.002265065286 -0.0003724432367 0)
(0.00143790887 -5.318065869e-05 0)
(0.00302230229 -0.0004167865441 0)
(0.001918706076 -6.103994156e-05 0)
(0.003848923783 -0.000456361166 0)
(0.0024339474 -6.776331184e-05 0)
(0.004734578308 -0.0004894177371 0)
(0.002975247573 -7.297650477e-05 0)
(0.005666193535 -0.0005142647989 0)
(0.003532741033 -7.6346169e-05 0)
(0.006628210558 -0.0005293893795 0)
(0.004095386674 -7.760710107e-05 0)
(0.007602994109 -0.0005335737982 0)
(0.004651374908 -7.658878916e-05 0)
(0.008571404563 -0.0005259964836 0)
(0.00518860744 -7.32363368e-05 0)
(0.009513503548 -0.0005063086291 0)
(0.005695212369 -6.761459165e-05 0)
(0.01040933843 -0.000474676034 0)
(0.006160051188 -5.990224101e-05 0)
(0.01123973334 -0.0004317655211 0)
(0.006573164039 -5.038541748e-05 0)
(0.01198702894 -0.0003786993577 0)
(0.006926143661 -3.942913816e-05 0)
(0.01263571928 -0.0003169785413 0)
(0.00721239401 -2.730857849e-05 0)
(0.01317293433 -0.0002483744632 0)
(0.007426740169 -1.40986617e-05 0)
(0.01358845916 -0.0001742870646 0)
(0.007565053656 -1.336774008e-07 0)
(0.01387520856 -9.574942925e-05 0)
(0.007625578117 1.382408764e-05 0)
(0.01402892234 -1.515244564e-05 0)
(0.007609522047 2.715893038e-05 0)
(0.01404751142 6.450120253e-05 0)
(0.007520195799 3.954792949e-05 0)
(0.01393410961 0.0001410526258 0)
(0.0073625123 5.075886455e-05 0)
(0.01369488051 0.0002128167099 0)
(0.007142656588 6.061344504e-05 0)
(0.01333852736 0.0002784234873 0)
(0.006867790114 6.899678744e-05 0)
(0.01287589079 0.0003367833138 0)
(0.006545668944 7.583365478e-05 0)
(0.01231927627 0.0003871386983 0)
(0.00618467751 8.1097698e-05 0)
(0.01168240897 0.0004289163825 0)
(0.005793072 8.48112471e-05 0)
(0.0109796315 0.0004619111076 0)
(0.00537911417 8.703051469e-05 0)
(0.01022539142 0.0004860724092 0)
(0.004950750137 8.785273242e-05 0)
(0.009434166658 0.0005016288879 0)
(0.004515454347 8.738956861e-05 0)
(0.008619947766 0.0005089952892 0)
(0.004080111128 8.576943706e-05 0)
(0.007795980098 0.0005087323766 0)
(0.003650939445 8.313806517e-05 0)
(0.006974542299 0.0005015125037 0)
(0.003233465592 7.964659385e-05 0)
(0.006166797971 0.0004880772693 0)
(0.002832535108 7.5433289e-05 0)
(0.005382732283 0.0004691833311 0)
(0.002452375566 7.061387325e-05 0)
(0.004631165113 0.0004455561177 0)
(0.002096673341 6.528516122e-05 0)
(0.003919812835 0.0004178567523 0)
(0.001768660079 5.953246298e-05 0)
(0.003255381614 0.0003866786328 0)
(0.001471160364 5.342776889e-05 0)
(0.002643658256 0.0003525659803 0)
(0.001206614932 4.703380387e-05 0)
(0.002089578342 0.0003160404113 0)
(0.0009770024415 4.047867555e-05 0)
(0.001597207338 0.0002776870923 0)
(0.0007834966546 3.396232521e-05 0)
(0.001169363788 0.000238420918 0)
(0.0006263556358 2.761450956e-05 0)
(0.0008075923228 0.0001992550094 0)
(0.0005052855415 2.148561544e-05 0)
(0.000511682124 0.0001608151394 0)
(0.0004195283497 1.566078106e-05 0)
(0.0002802958306 0.0001236300885 0)
(0.0003676389557 1.027393052e-05 0)
(0.0001110788171 8.843292003e-05 0)
(0.0003474162756 5.46983399e-06 0)
(3.426777074e-07 5.601697033e-05 0)
(0.0003559063161 1.38900713e-06 0)
(-5.693543784e-05 2.715712418e-05 0)
(0.000389467956 -1.842136939e-06 0)
(-6.702159944e-05 2.557375238e-06 0)
(0.0004438728146 -4.114301909e-06 0)
(-3.725179873e-05 -1.719920983e-05 0)
(0.000514398164 -5.342924916e-06 0)
(2.414699613e-05 -3.166846708e-05 0)
(0.0005961105175 -5.469372665e-06 0)
(0.0001084143304 -4.060793009e-05 0)
(0.0006839500649 -4.465480386e-06 0)
(0.0002066121946 -4.392549931e-05 0)
(0.0007728711944 -2.339057512e-06 0)
(0.0003098305711 -4.171457108e-05 0)
(0.0008579986107 8.789457935e-07 0)
(0.000409477557 -3.421795567e-05 0)
(0.0009347171432 5.140136676e-06 0)
(0.0004975162954 -2.178919745e-05 0)
(0.0009987305851 1.038071015e-05 0)
(0.0005666112584 -4.854048585e-06 0)
(0.001046087869 1.652552455e-05 0)
(0.0006102144801 1.612009295e-05 0)
(0.001073189214 2.349044228e-05 0)
(0.0006225913957 4.065504992e-05 0)
(0.00107678239 3.118057273e-05 0)
(0.0005988103408 6.82718721e-05 0)
(0.001053975835 3.948548463e-05 0)
(0.000534720972 9.849240855e-05 0)
(0.001002269606 4.827410457e-05 0)
(0.0004269438674 0.0001308186778 0)
(0.0009196286661 5.739263165e-05 0)
(0.0002728942276 0.0001647087421 0)
(0.0008045882347 6.666187008e-05 0)
(7.085459661e-05 0.0001995456934 0)
(0.0006563916591 7.587205773e-05 0)
(-0.0001798970156 0.000234608895 0)
(0.0004751590757 8.478172108e-05 0)
(-0.0004789051206 0.0002690482531 0)
(0.0002620546172 9.3127838e-05 0)
(-0.0008243208781 0.0003018709959 0)
(1.94377654e-05 0.0001006387326 0)
(-0.001212688404 0.0003319608217 0)
(-0.0002490405213 0.0001070415502 0)
(-0.001638761497 0.0003581107517 0)
(-0.0005383928206 0.0001120724113 0)
(-0.002095377298 0.0003790738047 0)
(-0.0008423418757 0.0001154974666 0)
(-0.002573441085 0.000393632749 0)
(-0.001153470302 0.0001171352243 0)
(-0.003062053905 0.0004006988151 0)
(-0.001463474495 0.0001168710136 0)
(-0.003548787863 0.0003994128205 0)
(-0.001763515032 0.0001146689056 0)
(-0.00402012093 0.0003892368631 0)
(-0.002044638585 0.0001105777492 0)
(-0.004462025623 0.0003700350791 0)
(-0.002298243976 0.0001047288799 0)
(-0.004860653147 0.0003421131384 0)
(-0.002516559602 9.73306026e-05 0)
(-0.005203089124 0.0003062287033 0)
(-0.002693013489 8.86540987e-05 0)
(-0.005478048046 0.0002635549766 0)
(-0.002822597139 7.902656033e-05 0)
(-0.00567644877 0.000215603948 0)
(-0.002902192206 6.883490886e-05 0)
(-0.005792009046 0.0001642179755 0)
(-0.00293081601 5.85074893e-05 0)
(-0.005821714937 0.0001115192813 0)
(-0.002909667014 4.846541487e-05 0)
(-0.005766126159 5.968724387e-05 0)
(-0.002841851885 3.905347481e-05 0)
(-0.00562914034 1.06466745e-05 0)
(-0.002731906122 3.050992462e-05 0)
(-0.005417235171 -3.414658836e-05 0)
(-0.002585422105 2.298693715e-05 0)
(-0.005139134936 -7.359907736e-05 0)
(-0.00240883199 1.656849906e-05 0)
(-0.004804647943 -0.0001068238031 0)
(-0.002209131438 1.129210542e-05 0)
(-0.004425268517 -0.0001332139316 0)
(-0.001993586562 7.155611458e-06 0)
(-0.004013304562 -0.0001524492892 0)
(-0.001769413045 4.115951622e-06 0)
(-0.003581382013 -0.0001645421875 0)
(-0.001543499058 2.094387051e-06 0)
(-0.003141881551 -0.0001697784781 0)
(-0.001322150083 9.783677355e-07 0)
(-0.002706434544 -0.0001687134848 0)
(-0.001110865854 6.294381824e-07 0)
(-0.002285513782 -0.0001621317223 0)
(-0.0009141823949 8.835638104e-07 0)
(-0.001888096049 -0.0001509803025 0)
(-0.0007355789433 1.557718013e-06 0)
(-0.001521426529 -0.0001363155473 0)
(-0.0005774401291 2.472698334e-06 0)
(-0.001190900191 -0.0001192328254 0)
(-0.0004410913584 3.469882797e-06 0)
(-0.0009000466092 -0.0001007990356 0)
(-0.000326888397 4.41457552e-06 0)
(-0.0006506127702 -8.199792046e-05 0)
(-0.0002343351693 5.193653111e-06 0)
(-0.0004427129659 -6.369389825e-05 0)
(-0.0001622341527 5.716541938e-06 0)
(-0.0002750401251 -4.660538292e-05 0)
(-0.0001088463474 5.922671966e-06 0)
(-0.0001451348697 -3.12831975e-05 0)
(-7.206857925e-05 5.784905871e-06 0)
(-4.96698623e-05 -1.81044692e-05 0)
(-4.959131088e-05 5.301607912e-06 0)
(1.527345655e-05 -7.276591465e-06 0)
(-3.903978635e-05 4.485493538e-06 0)
(5.392753904e-05 1.134648519e-06 0)
(-3.808048477e-05 3.361583948e-06 0)
(7.061057295e-05 7.179480871e-06 0)
(-4.450419154e-05 1.972493277e-06 0)
(6.954459691e-05 1.099480618e-05 0)
(-5.628853937e-05 3.725684416e-07 0)
(5.47031816e-05 1.278583083e-05 0)
(-7.163542395e-05 -1.390414593e-06 0)
(2.972588233e-05 1.279853515e-05 0)
(-8.897537661e-05 -3.276362487e-06 0)
(-2.121102625e-06 1.128608481e-05 0)
(-0.0001069658265 -5.237266016e-06 0)
(-3.797619716e-05 8.501841908e-06 0)
(-0.0001244991447 -7.221234001e-06 0)
(-7.540556868e-05 4.705555057e-06 0)
(-0.0001406892805 -9.192346478e-06 0)
(-0.0001123822919 1.44725649e-07 0)
(-0.0001548411188 -1.112766384e-05 0)
(-0.0001472457321 -4.96941356e-06 0)
(-0.0001664221582 -1.299951224e-05 0)
(-0.0001786780905 -1.045331082e-05 0)
(-0.0001750466412 -1.478028931e-05 0)
(-0.0002056744782 -1.614338851e-05 0)
(-0.0001804441626 -1.645936864e-05 0)
(-0.0002274756753 -2.191352582e-05 0)
(-0.0001824046619 -1.804123002e-05 0)
(-0.0002434941755 -2.769407711e-05 0)
(-0.0001807259445 -1.953545368e-05 0)
(-0.0002532470108 -3.347153604e-05 0)
(-0.0001751587048 -2.09622402e-05 0)
(-0.0002562648668 -3.928732265e-05 0)
(-0.0001653568831 -2.235851375e-05 0)
(-0.0002519922929 -4.524400937e-05 0)
(-0.0001508398486 -2.376569285e-05 0)
(-0.0002397198078 -5.147275134e-05 0)
(-0.0001310596878 -2.52003657e-05 0)
(-0.0002186152307 -5.804524862e-05 0)
(-0.00010563601 -2.659351137e-05 0)
(-0.0001879353854 -6.479883596e-05 0)
(-7.48996913e-05 -2.769058847e-05 0)
(-0.0001475939219 -7.102639351e-05 0)
(-4.088132303e-05 -2.795085653e-05 0)
(-9.914657565e-05 -7.504042071e-05 0)
(-8.762524508e-06 -2.627427971e-05 0)
(-4.734558757e-05 -7.369890496e-05 0)
(1.118496496e-05 -1.904567037e-05 0)
(-3.64405816e-06 -6.190862527e-05 0)
(1.131080775e-05 -3.095547199e-05 0)
(-0.0001319489372 0.000170448064 0)
(-4.087982889e-05 0.0001812464137 0)
(-0.0003672877574 0.0002420306489 0)
(-0.0002551416984 0.0003493147149 0)
(-0.0006192004307 0.0002473821937 0)
(-0.0005177699181 0.0003851026861 0)
(-0.0008395883139 0.0002170851654 0)
(-0.0007613338942 0.0003458049975 0)
(-0.001003399579 0.0001700968384 0)
(-0.0009437412356 0.0002694725158 0)
(-0.00109754484 0.0001149070447 0)
(-0.001046445073 0.0001749384149 0)
(-0.001113868535 5.435263044e-05 0)
(-0.001058255145 6.96222168e-05 0)
(-0.001045693464 -1.118928964e-05 0)
(-0.0009706455865 -4.455731714e-05 0)
(-0.0008864751865 -8.208284594e-05 0)
(-0.0007757751601 -0.0001677454964 0)
(-0.0006296237773 -0.0001586121675 0)
(-0.0004659157176 -0.0003003352044 0)
(-0.0002687551621 -0.0002406900628 0)
(-3.340163272e-05 -0.0004423099034 0)
(0.0002018573845 -0.0003277855257 0)
(0.0005288018322 -0.0005929490738 0)
(0.0007867394917 -0.0004188800558 0)
(0.00122655732 -0.0007507386076 0)
(0.001488648923 -0.0005124553995 0)
(0.002063859602 -0.0009133228696 0)
(0.002308027495 -0.0006065139601 0)
(0.003042207754 -0.00107754143 0)
(0.003242509417 -0.0006986137586 0)
(0.004160000721 -0.001239471429 0)
(0.004286484808 -0.0007859310168 0)
(0.005411995859 -0.001394518889 0)
(0.005430770456 -0.0008653583856 0)
(0.006788867793 -0.001537556101 0)
(0.006662422656 -0.0009336450505 0)
(0.0082769077 -0.001663125763 0)
(0.007964737666 -0.000987573648 0)
(0.009857919009 -0.001765710507 0)
(0.009317466097 -0.001024166341 0)
(0.01150934639 -0.001840052449 0)
(0.01069726382 -0.001040902498 0)
(0.01320467546 -0.001881508004 0)
(0.01207837043 -0.001035918507 0)
(0.01491410582 -0.001886396702 0)
(0.01343348792 -0.001008167653 0)
(0.01660547099 -0.00185229573 0)
(0.01473478341 -0.0009575221926 0)
(0.01824535885 -0.001778256918 0)
(0.01595495925 -0.0008847978414 0)
(0.01980034637 -0.001664903991 0)
(0.01706828652 -0.0007916955457 0)
(0.02123824337 -0.001514401502 0)
(0.01805153209 -0.0006806707245 0)
(0.02252925297 -0.001330293237 0)
(0.01888467671 -0.0005547324899 0)
(0.0236469664 -0.001117231167 0)
(0.01955137791 -0.0004170518954 0)
(0.02456921072 -0.0008806097284 0)
(0.02003978083 -0.0002704066838 0)
(0.02527822238 -0.0006262802514 0)
(0.02034191069 -0.0001179105781 0)
(0.02576096267 -0.0003591436058 0)
(0.02045321448 3.589355031e-05 0)
(0.02601214634 -8.501514333e-05 0)
(0.02037415047 0.0001861792968 0)
(0.02602650036 0.0001880595725 0)
(0.02011052555 0.0003291279039 0)
(0.02580737721 0.0004525187511 0)
(0.01967229613 0.0004617649688 0)
(0.02536368029 0.0007024506964 0)
(0.01907281742 0.000581696984 0)
(0.02470874066 0.0009329840783 0)
(0.01832819413 0.0006871071751 0)
(0.02385986452 0.001140158308 0)
(0.01745649938 0.0007766857503 0)
(0.0228371951 0.001321006346 0)
(0.01647769597 0.0008496569616 0)
(0.02166380534 0.001473322421 0)
(0.0154120961 0.0009057431861 0)
(0.0203643364 0.001595973618 0)
(0.01428047231 0.0009450899654 0)
(0.0189640287 0.001688471407 0)
(0.0131033212 0.0009682813133 0)
(0.01748871597 0.001751211431 0)
(0.0119003929 0.0009762272319 0)
(0.01596380422 0.001785268666 0)
(0.01069031315 0.0009700883617 0)
(0.01441377853 0.001792285735 0)
(0.009490295768 0.0009511963032 0)
(0.0128617282 0.001774340395 0)
(0.008315960667 0.0009209647103 0)
(0.01132897799 0.001733796973 0)
(0.007181259318 0.0008807981591 0)
(0.009834852412 0.001673152778 0)
(0.006098487786 0.0008320180865 0)
(0.008396570104 0.001594890701 0)
(0.005078368023 0.0007758264794 0)
(0.007029238127 0.001501374272 0)
(0.00413016449 0.0007133174064 0)
(0.005745921205 0.001394800244 0)
(0.003261767699 0.0006455311654 0)
(0.004557726261 0.001277234631 0)
(0.002479699587 0.0005735747957 0)
(0.003473898186 0.001150721775 0)
(0.001788985476 0.0004988696697 0)
(0.002501886391 0.001017480637 0)
(0.001192872932 0.0004231933356 0)
(0.00164674454 0.000880332001 0)
(0.0006922826782 0.0003481489429 0)
(0.000911606341 0.000742719019 0)
(0.0002859368091 0.0002749234393 0)
(0.0002963704527 0.0006075566094 0)
(-2.897352319e-05 0.0002047549301 0)
(-0.0002023691208 0.0004769727391 0)
(-0.0002570639884 0.0001391100697 0)
(-0.0005896802992 0.000353556501 0)
(-0.0004048431418 7.948949846e-05 0)
(-0.0008730573905 0.0002400308417 0)
(-0.0004806450663 2.730298503e-05 0)
(-0.001062339036 0.0001390228234 0)
(-0.0004944388342 -1.622537454e-05 0)
(-0.001169509004 5.28782735e-05 0)
(-0.0004575252841 -5.012525453e-05 0)
(-0.001208356587 -1.648667694e-05 0)
(-0.0003822428313 -7.375541758e-05 0)
(-0.00119411952 -6.769062409e-05 0)
(-0.0002813060874 -8.68145425e-05 0)
(-0.001142832694 -0.0001000310009 0)
(-0.0001675170793 -8.932452609e-05 0)
(-0.001070677076 -0.0001133903787 0)
(-5.334875945e-05 -8.162225415e-05 0)
(-0.0009935656335 -0.0001082843023 0)
(4.944605592e-05 -6.429247449e-05 0)
(-0.0009265695422 -8.575676322e-05 0)
(0.0001301099934 -3.809327281e-05 0)
(-0.0008834703587 -4.725059041e-05 0)
(0.000179052476 -3.885811607e-06 0)
(-0.0008764578088 5.525829763e-06 0)
(0.0001879392772 3.742445802e-05 0)
(-0.0009159433224 7.07303768e-05 0)
(0.0001496984016 8.492756468e-05 0)
(-0.001010494317 0.000146490059 0)
(5.849432762e-05 0.0001377216625 0)
(-0.001166857801 0.0002309697295 0)
(-9.032101682e-05 0.0001948958653 0)
(-0.001390037711 0.0003223884354 0)
(-0.0003002285433 0.0002554893628 0)
(-0.001683388282 0.0004189904754 0)
(-0.0005735129486 0.0003184361519 0)
(-0.002048683713 0.0005189756476 0)
(-0.0009111619129 0.0003825047665 0)
(-0.002486135587 0.0006204072079 0)
(-0.001312698677 0.0004462443331 0)
(-0.002994334282 0.0007211112161 0)
(-0.001775953252 0.0005079468727 0)
(-0.003570107947 0.0008185896856 0)
(-0.002296795586 0.0005656468074 0)
(-0.004208311228 0.0009099656986 0)
(-0.002868877379 0.0006171645555 0)
(-0.004901586554 0.0009919958805 0)
(-0.003483431286 0.0006601861453 0)
(-0.005640138449 0.001061145488 0)
(-0.0041291792 0.0006923807096 0)
(-0.006411566492 0.001113735132 0)
(-0.00479238776 0.000711559566 0)
(-0.00720082997 0.001146152095 0)
(-0.005457119328 0.0007158636847 0)
(-0.00799039852 0.001155130694 0)
(-0.006105698041 0.0007039513181 0)
(-0.008760620982 0.001138064778 0)
(-0.006719385849 0.000675165421 0)
(-0.009490334447 0.001093318763 0)
(-0.007279238337 0.0006296517869 0)
(-0.01015772037 0.001020489739 0)
(-0.007767063817 0.00056840959 0)
(-0.01074132881 0.0009205665576 0)
(-0.00816644283 0.0004932680004 0)
(-0.01122125405 0.0007959702771 0)
(-0.008463579029 0.0004067814567 0)
(-0.01158022643 0.0006504721112 0)
(-0.008648109546 0.0003121415016 0)
(-0.01180451517 0.0004889560645 0)
(-0.008713826258 0.0002131059197 0)
(-0.01188491028 0.0003173742603 0)
(-0.0086592435 0.0001137510003 0)
(-0.01181750358 0.0001425654887 0)
(-0.008487630983 1.803081593e-05 0)
(-0.01160423889 -2.852087152e-05 0)
(-0.008206344313 -7.07515753e-05 0)
(-0.01125262622 -0.0001898447187 0)
(-0.007826018962 -0.0001502555598 0)
(-0.01077311261 -0.0003366259724 0)
(-0.007359631455 -0.0002187517888 0)
(-0.01017987534 -0.0004653712243 0)
(-0.006822138175 -0.0002747668929 0)
(-0.0094904031 -0.0005731608383 0)
(-0.006230271151 -0.000317278256 0)
(-0.008724564334 -0.000657546794 0)
(-0.005601705882 -0.0003459070331 0)
(-0.007903704223 -0.0007172097716 0)
(-0.004954248755 -0.0003609083868 0)
(-0.007049810121 -0.0007519776358 0)
(-0.004305037768 -0.0003631016794 0)
(-0.006184532892 -0.0007627606105 0)
(-0.003669877494 -0.0003537864151 0)
(-0.005328333766 -0.000751412646 0)
(-0.003062709731 -0.0003346365938 0)
(-0.004499788855 -0.0007205532089 0)
(-0.002495217672 -0.0003075860156 0)
(-0.003715006201 -0.0006733751155 0)
(-0.001976567785 -0.0002747085779 0)
(-0.002987200336 -0.0006134418242 0)
(-0.00151330281 -0.0002380951591 0)
(-0.00232645289 -0.000544475924 0)
(-0.00110936429 -0.0001997358606 0)
(-0.001739645224 -0.0004701543668 0)
(-0.000766246226 -0.000161430451 0)
(-0.001230543671 -0.0003939221702 0)
(-0.000483249984 -0.0001247272351 0)
(-0.000800024494 -0.0003188549947 0)
(-0.0002578087875 -9.087297192e-05 0)
(-0.0004463957646 -0.0002475572185 0)
(-8.58662135e-05 -6.078639179e-05 0)
(-0.0001658150729 -0.0001820857527 0)
(3.772182105e-05 -3.50565921e-05 0)
(4.724128376e-05 -0.0001239210642 0)
(0.0001188046183 -1.396953297e-05 0)
(0.0001995257015 -7.398212966e-05 0)
(0.0001635630909 2.440896148e-06 0)
(0.0002985434184 -3.267174144e-05 0)
(0.000178197085 1.433741049e-05 0)
(0.0003521306684 4.574964558e-08 0)
(0.0001686895699 2.20311102e-05 0)
(0.0003680790829 2.453071747e-05 0)
(0.0001406444795 2.593816113e-05 0)
(0.0003538501327 4.138512058e-05 0)
(9.91689481e-05 2.652986396e-05 0)
(0.0003163829801 5.136961825e-05 0)
(4.880397971e-05 2.429266682e-05 0)
(0.0002619903863 5.532390899e-05 0)
(-6.496473415e-06 1.97154438e-05 0)
(0.0001962870629 5.41145174e-05 0)
(-6.336384417e-05 1.327872719e-05 0)
(0.0001241470506 4.8612469e-05 0)
(-0.0001189996638 5.425492127e-06 0)
(4.971472398e-05 3.96576875e-05 0)
(-0.0001711372575 -3.456791558e-06 0)
(-2.354744067e-05 2.801630758e-05 0)
(-0.0002179839375 -1.303291164e-05 0)
(-9.281621572e-05 1.436600716e-05 0)
(-0.0002581471038 -2.302550444e-05 0)
(-0.0001558504086 -7.123028255e-07 0)
(-0.0002905564627 -3.324014899e-05 0)
(-0.0002108891209 -1.67574855e-05 0)
(-0.0003143637285 -4.358659367e-05 0)
(-0.0002565339541 -3.346762246e-05 0)
(-0.0003288179172 -5.408368528e-05 0)
(-0.0002916269831 -5.072335686e-05 0)
(-0.0003331398194 -6.485730093e-05 0)
(-0.000315109363 -6.859268789e-05 0)
(-0.000326419408 -7.610775656e-05 0)
(-0.0003258701583 -8.730787206e-05 0)
(-0.0003075959062 -8.799479355e-05 0)
(-0.000322655938 -0.0001071511881 0)
(-0.0002756403872 -0.0001003874821 0)
(-0.0003041406236 -0.0001281710407 0)
(-0.0002300724719 -0.0001124240033 0)
(-0.0002692673914 -0.000149651583 0)
(-0.0001720121368 -0.0001218542426 0)
(-0.0002180816896 -0.000169285616 0)
(-0.0001058721014 -0.0001242383541 0)
(-0.0001530889035 -0.0001820872073 0)
(-4.16823362e-05 -0.0001122609683 0)
(-8.123917229e-05 -0.0001793047388 0)
(2.497108905e-06 -7.534373997e-05 0)
(-1.809605702e-05 -0.0001478490749 0)
(1.104945712e-05 -7.050752804e-05 0)
(-0.000148838218 0.0003622294757 0)
(-4.265383811e-05 0.0003225667406 0)
(-0.0004033639108 0.0004944318272 0)
(-0.0002636753751 0.000596340878 0)
(-0.0006612210405 0.0004853482789 0)
(-0.000520407123 0.0006361895658 0)
(-0.0008661315171 0.0003998430075 0)
(-0.0007397789644 0.0005451852672 0)
(-0.0009874971607 0.000275784578 0)
(-0.0008748277455 0.000386877076 0)
(-0.001007977205 0.0001308978107 0)
(-0.0009035074159 0.0001933038685 0)
(-0.0009159401504 -2.834264787e-05 0)
(-0.0008115267726 -2.242660185e-05 0)
(-0.0007017567093 -0.0002005250934 0)
(-0.0005876978431 -0.0002564276299 0)
(-0.000356395926 -0.0003857830827 0)
(-0.0002219082855 -0.0005083028073 0)
(0.0001289486842 -0.0005842074244 0)
(0.0002956923037 -0.0007782896877 0)
(0.0007626010546 -0.0007951638283 0)
(0.0009746493276 -0.001065954474 0)
(0.001551752366 -0.001016941506 0)
(0.001823528964 -0.001369507319 0)
(0.002501737477 -0.001246681302 0)
(0.002849203725 -0.001685634295 0)
(0.003615308535 -0.001480379107 0)
(0.00405605538 -0.002009460099 0)
(0.004891937878 -0.001712940875 0)
(0.005445193194 -0.002334591462 0)
(0.006327165443 -0.001938282433 0)
(0.007013710441 -0.002653224923 0)
(0.007912051692 -0.002149493945 0)
(0.008754015642 -0.002956319264 0)
(0.009632762663 -0.002339085165 0)
(0.01065328815 -0.003233875486 0)
(0.01147034687 -0.002499317319 0)
(0.01269311158 -0.003475331587 0)
(0.01340076286 -0.002622615732 0)
(0.01484934803 -0.003670069746 0)
(0.0153951877 -0.00270204085 0)
(0.01709230394 -0.003808027405 0)
(0.01742063385 -0.002731773659 0)
(0.01938723695 -0.003880357516 0)
(0.01944086643 -0.002707561442 0)
(0.02169520978 -0.003880072798 0)
(0.02141757251 -0.002627070985 0)
(0.02397425628 -0.003802603929 0)
(0.02331170952 -0.002490102519 0)
(0.02618079948 -0.003646186727 0)
(0.02508492121 -0.002298632883 0)
(0.02827121476 -0.003412040816 0)
(0.02670091518 -0.002056679148 0)
(0.03020340614 -0.003104305003 0)
(0.02812670888 -0.001770001337 0)
(0.03193827452 -0.002729735606 0)
(0.02933364211 -0.00144567749 0)
(0.03344098441 -0.002297222638 0)
(0.03029812353 -0.0010916654 0)
(0.03468198555 -0.001817154962 0)
(0.031002067 -0.0007159668186 0)
(0.03563789236 -0.00130083311 0)
(0.03143400126 -0.0003264428144 0)
(0.03629032773 -0.0007597321889 0)
(0.03158745882 6.766525448e-05 0)
(0.0366309114 -0.0002046652294 0)
(0.0314613178 0.0004556546672 0)
(0.03665410732 0.0003509631771 0)
(0.03106180465 0.0008277817226 0)
(0.03636123969 0.0008921994986 0)
(0.03040108371 0.00117623129 0)
(0.03576227938 0.001407114399 0)
(0.0294964106 0.001494558037 0)
(0.03487279905 0.001885649193 0)
(0.02836933992 0.001777640868 0)
(0.03371383253 0.00231941338 0)
(0.02704467996 0.002021611662 0)
(0.0323104496 0.002701810958 0)
(0.02555061965 0.002223906967 0)
(0.03069211837 0.003027822116 0)
(0.0239163483 0.002383181781 0)
(0.02889110422 0.003294387806 0)
(0.02217235934 0.002499201591 0)
(0.02694082134 0.003499813389 0)
(0.02034933133 0.002572860547 0)
(0.02487626371 0.003644158811 0)
(0.018477396 0.002605972134 0)
(0.02273240943 0.003728925933 0)
(0.01658548321 0.002601099605 0)
(0.02054353769 0.003756873679 0)
(0.01470077404 0.00256135919 0)
(0.01834248278 0.003731786521 0)
(0.01284828764 0.002490207065 0)
(0.01615999611 0.003658196366 0)
(0.01105061045 0.002391227325 0)
(0.0140242566 0.003541087379 0)
(0.009327765893 0.002267950211 0)
(0.01196054919 0.003385607577 0)
(0.007697190484 0.00212373724 0)
(0.009991098448 0.003196835542 0)
(0.006173798797 0.001961762105 0)
(0.008135033611 0.002979651626 0)
(0.00477006366 0.00178510195 0)
(0.006408422231 0.002738735281 0)
(0.003496048789 0.001596927886 0)
(0.004824359217 0.002478719035 0)
(0.002359374733 0.001400858262 0)
(0.003393176138 0.002204431426 0)
(0.001365201043 0.001201360865 0)
(0.002121970909 0.001921308368 0)
(0.0005153713573 0.001003183287 0)
(0.001014723118 0.001636241641 0)
(-0.0001924989058 0.0008102217029 0)
(7.272738731e-05 0.001356476101 0)
(-0.000763751504 0.0006259783339 0)
(-0.000709907477 0.001087181702 0)
(-0.001206415855 0.0004542840354 0)
(-0.001341352362 0.000833699537 0)
(-0.001531318641 0.0002989921878 0)
(-0.001832998116 0.0006015855686 0)
(-0.001751943818 0.0001636709273 0)
(-0.002199417418 0.0003961457814 0)
(-0.001884108696 5.136071323e-05 0)
(-0.002458035236 0.0002220698576 0)
(-0.001945483637 -3.560840135e-05 0)
(-0.002628635184 8.311331243e-05 0)
(-0.001955121452 -9.579064931e-05 0)
(-0.002732852521 -1.811046708e-05 0)
(-0.001932432842 -0.0001286643748 0)
(-0.002793242774 -8.040317689e-05 0)
(-0.001896744348 -0.000134601926 0)
(-0.002832350882 -0.0001038444576 0)
(-0.001866580834 -0.000114821983 0)
(-0.002872109857 -8.986278658e-05 0)
(-0.001859041705 -7.122200389e-05 0)
(-0.002932949307 -4.101388062e-05 0)
(-0.001889342862 -6.190850822e-06 0)
(-0.00303314006 3.926209611e-05 0)
(-0.001970498252 7.758765436e-05 0)
(-0.003188313147 0.000146931774 0)
(-0.002113154111 0.0001773102976 0)
(-0.003411152784 0.0002776574435 0)
(-0.002325560807 0.0002901862057 0)
(-0.003711274174 0.0004270379071 0)
(-0.00261363886 0.0004135078615 0)
(-0.004095259429 0.0005907893987 0)
(-0.002981108057 0.000544654124 0)
(-0.004566811657 0.0007648305408 0)
(-0.003429631663 0.0006810307288 0)
(-0.005126978924 0.0009452808662 0)
(-0.00395893069 0.0008199628337 0)
(-0.005774397403 0.001128369811 0)
(-0.004566835456 0.0009585624575 0)
(-0.006505505043 0.001310285214 0)
(-0.005249252004 0.001093594366 0)
(-0.007314686998 0.001486987689 0)
(-0.006000046679 0.001221371503 0)
(-0.008194320321 0.001654030549 0)
(-0.006810853911 0.001337713971 0)
(-0.009134707766 0.0018064262 0)
(-0.007670868039 0.001437995973 0)
(-0.01012393555 0.001938603354 0)
(-0.008566644925 0.001517289332 0)
(-0.01114769776 0.00204449616 0)
(-0.009482010449 0.001570603564 0)
(-0.01218913858 0.002117761686 0)
(-0.01039810931 0.001593221168 0)
(-0.01322878955 0.00215213277 0)
(-0.01129367015 0.001581108112 0)
(-0.01424467455 0.002141899627 0)
(-0.01214552239 0.001531351994 0)
(-0.0152126513 0.00208248751 0)
(-0.01292939185 0.001442569166 0)
(-0.01610703678 0.00197105045 0)
(-0.01362094148 0.001315206235 0)
(-0.01690155007 0.001807000417 0)
(-0.01419698054 0.001151687468 0)
(-0.01757049567 0.001592341453 0)
(-0.01463675572 0.0009563951742 0)
(-0.01809020784 0.001331788165 0)
(-0.01492308621 0.0007354456327 0)
(-0.01844038268 0.001032634834 0)
(-0.01504340172 0.0004964863025 0)
(-0.01860509543 0.0007043187577 0)
(-0.01499075755 0.0002485662321 0)
(-0.01857412597 0.0003583771502 0)
(-0.01476468913 1.596451963e-06 0)
(-0.01834399219 8.138891791e-06 0)
(-0.01437123845 -0.0002352992 0)
(-0.01791960299 -0.0003329002995 0)
(-0.01382109537 -0.0004549859761 0)
(-0.0173099473 -0.0006539866515 0)
(-0.01312847089 -0.0006516394597 0)
(-0.01652892402 -0.0009467438658 0)
(-0.01231199302 -0.0008202206411 0)
(-0.01559579756 -0.001203180499 0)
(-0.011394005 -0.0009567276923 0)
(-0.01453444577 -0.001416568217 0)
(-0.01039900399 -0.001058510308 0)
(-0.01337147182 -0.001582227347 0)
(-0.009352653566 -0.001124499907 0)
(-0.0121354476 -0.001697595493 0)
(-0.008280774462 -0.001155194367 0)
(-0.01085572803 -0.00176227485 0)
(-0.007208355869 -0.001152535211 0)
(-0.009561323541 -0.001777951427 0)
(-0.006158646211 -0.001119694549 0)
(-0.008279838474 -0.001748174902 0)
(-0.005152381355 -0.001060812471 0)
(-0.007036540169 -0.00167804246 0)
(-0.004207195801 -0.0009807156544 0)
(-0.005853595199 -0.001573830844 0)
(-0.003337218838 -0.0008846241607 0)
(-0.004749497739 -0.00144259497 0)
(-0.00255287668 -0.0007778549362 0)
(-0.003738712231 -0.001291764239 0)
(-0.001860875198 -0.0006655475285 0)
(-0.00283153398 -0.001128742352 0)
(-0.001264353471 -0.0005524301423 0)
(-0.002034148518 -0.0009605579395 0)
(-0.0007631900413 -0.000442639782 0)
(-0.00134886176 -0.0007935689671 0)
(-0.0003544203076 -0.0003395951261 0)
(-0.0007744706591 -0.0006332458877 0)
(-3.272964646e-05 -0.0002459192186 0)
(-0.0003067498672 -0.0004840184247 0)
(0.0002090126769 -0.0001634288757 0)
(6.098913802e-05 -0.0003492061477 0)
(0.00037922115 -9.316706076e-05 0)
(0.0003373225871 -0.0002310285532 0)
(0.000487061515 -3.546657425e-05 0)
(0.0005321027811 -0.0001306512403 0)
(0.0005419607106 9.909205197e-06 0)
(0.0006559221067 -4.830665346e-05 0)
(0.0005531792104 4.361147477e-05 0)
(0.0007196004991 1.653337546e-05 0)
(0.0005295234746 6.658747055e-05 0)
(0.0007336889263 6.49342541e-05 0)
(0.0004791463961 7.996644798e-05 0)
(0.0007081410183 9.832114857e-05 0)
(0.0004094215149 8.496853468e-05 0)
(0.0006521264086 0.0001183314804 0)
(0.0003268755847 8.284432913e-05 0)
(0.00057392071 0.0001267024897 0)
(0.0002371716113 7.482670342e-05 0)
(0.0004808316446 0.0001251900107 0)
(0.000145123632 6.208024391e-05 0)
(0.0003791834847 0.0001155038964 0)
(5.474039499e-05 4.566046717e-05 0)
(0.0002743573535 9.924480667e-05 0)
(-3.071611845e-05 2.649192082e-05 0)
(0.0001708487751 7.784946961e-05 0)
(-0.0001086231776 5.342218092e-06 0)
(7.23367446e-05 5.256329816e-05 0)
(-0.0001768885977 -1.722006256e-05 0)
(-1.820642668e-05 2.439055649e-05 0)
(-0.0002338161945 -4.086447195e-05 0)