/*--------------------------------*- C++ -*----------------------------------*\
| =========                 |                                                 |
| \\      /  F ield         | OpenFOAM: The Open Source CFD Toolbox           |
|  \\    /   O peration     | Version:  5.x                                   |
|   \\  /    A nd           | Web:      www.OpenFOAM.org                      |
|    \\/     M anipulation  |                                                 |
\*---------------------------------------------------------------------------*/
FoamFile
{
    version     2.0;
    format      ascii;
    class       volVectorField;
    location    "0";
    object      Urom;
}
// * * * * * * * * * * * * * * * * * * * * * * * * * * * * * * * * * * * * * //

dimensions      [0 1 -1 0 0 0 0];

internalField   nonuniform List<vector> 
17457
(
(0.824222 0.00323037 0)
(0.752827 0.00316905 0)
(2.30028 0.0331143 0)
(0.679508 0.00317015 0)
(2.15638 0.0331466 0)
(3.72341 0.0723524 0)
(0.599819 0.00352527 0)
(2.00364 0.0347411 0)
(3.58844 0.0731327 0)
(5.07629 0.099346 0)
(0.512171 0.00391615 0)
(1.83009 0.0377824 0)
(3.43073 0.0802471 0)
(5.01187 0.105551 0)
(6.22694 0.0995633 0)
(0.421143 0.00391038 0)
(1.63243 0.0405596 0)
(3.22662 0.0918142 0)
(4.90284 0.125189 0)
(6.26464 0.117708 0)
(7.04403 0.0668941 0)
(0.334137 0.00348334 0)
(1.42204 0.0402151 0)
(2.9712 0.102096 0)
(4.71936 0.153705 0)
(6.2397 0.156492 0)
(7.18587 0.101049 0)
(7.50816 0.00756895 0)
(0.256341 0.00312501 0)
(1.21597 0.0366947 0)
(2.68071 0.104182 0)
(4.45417 0.179387 0)
(6.12036 0.210072 0)
(7.26159 0.163327 0)
(7.71928 0.0549699 0)
(7.71699 -0.0607739 0)
(0.190847 0.00296642 0)
(1.02818 0.0316127 0)
(2.37895 0.0979812 0)
(4.12529 0.190977 0)
(5.89162 0.25964 0)
(7.23654 0.248411 0)
(7.88262 0.14019 0)
(7.93415 -0.00974534 0)
(7.80146 -0.118773 0)
(0.141951 0.00246672 0)
(0.873278 0.0251956 0)
(2.08916 0.0856165 0)
(3.76062 0.186753 0)
(5.57854 0.287866 0)
(7.0866 0.327906 0)
(7.95833 0.258385 0)
(8.13938 0.0906867 0)
(7.96783 -0.0742721 0)
(7.84723 -0.156559 0)
(0.112755 0.00164049 0)
(0.765334 0.0168743 0)
(1.84113 0.0669457 0)
(3.38953 0.167948 0)
(5.21673 0.291134 0)
(6.85135 0.375012 0)
(7.92263 0.368175 0)
(8.29584 0.234451 0)
(8.15754 0.027261 0)
(7.94253 -0.122991 0)
(7.88229 -0.174969 0)
(0.102143 0.0009801 0)
(0.709743 0.00803129 0)
(1.66508 0.0422737 0)
(3.05431 0.132916 0)
(4.83312 0.270396 0)
(6.57755 0.38773 0)
(7.82139 0.430165 0)
(8.39194 0.366958 0)
(8.35812 0.178695 0)
(8.08123 -0.0355641 0)
(7.92372 -0.152105 0)
(7.90879 -0.180879 0)
(0.105234 0.00040567 0)
(0.70096 0.000969859 0)
(1.57217 0.016903 0)
(2.80115 0.0844974 0)
(4.46119 0.221139 0)
(6.27762 0.37185 0)
(7.70414 0.450331 0)
(8.45721 0.436753 0)
(8.57532 0.318075 0)
(8.29095 0.100004 0)
(8.01456 -0.0895807 0)
(7.92955 -0.169453 0)
(7.93025 -0.182821 0)
(0.115625 0.000196529 0)
(0.725974 -0.00360627 0)
(1.55318 -0.00344914 0)
(2.64707 0.0352339 0)
(4.14718 0.14882 0)
(5.95223 0.31949 0)
(7.56136 0.445837 0)
(8.52205 0.461347 0)
(8.8032 0.388917 0)
(8.59156 0.226101 0)
(8.21362 0.0098722 0)
(8.00253 -0.13625 0)
(7.9609 -0.187013 0)
(7.95846 -0.188951 0)
(0.129567 4.40348e-05 0)
(0.769605 -0.00600744 0)
(1.59082 -0.0166667 0)
(2.58303 -0.00503578 0)
(3.9186 0.0735531 0)
(5.62917 0.232901 0)
(7.3603 0.40538 0)
(8.55902 0.472514 0)
(9.02947 0.417214 0)
(8.94235 0.292458 0)
(8.54757 0.104966 0)
(8.18697 -0.0818361 0)
(8.04644 -0.182134 0)
(8.01855 -0.213726 0)
(8.00742 -0.206176 0)
(0.147828 -0.000413746 0)
(0.821809 -0.00779092 0)
(1.66481 -0.0236247 0)
(2.59558 -0.0332316 0)
(3.7793 0.00923535 0)
(5.35153 0.136077 0)
(7.10551 0.320124 0)
(8.52526 0.454918 0)
(9.22439 0.444928 0)
(9.2817 0.326175 0)
(8.95978 0.162285 0)
(8.50963 -0.0270782 0)
(8.21979 -0.169187 0)
(8.1292 -0.232038 0)
(8.10236 -0.252592 0)
(8.08389 -0.239357 0)
(0.173039 -0.00104287 0)
(0.880986 -0.010127 0)
(1.75598 -0.0273254 0)
(2.66841 -0.0493327 0)
(3.72559 -0.0402854 0)
(5.14295 0.0479617 0)
(6.84619 0.212693 0)
(8.40869 0.385041 0)
(9.36089 0.452284 0)
(9.59118 0.367216 0)
(9.35984 0.202001 0)
(8.92224 0.0157342 0)
(8.50324 -0.154166 0)
(8.29349 -0.249384 0)
(8.23294 -0.286505 0)
(8.20678 -0.30174 0)
(8.1814 -0.28944 0)
(0.206633 -0.00203784 0)
(0.947188 -0.0132349 0)
(1.85367 -0.0306368 0)
(2.77551 -0.0566883 0)
(3.75039 -0.0724412 0)
(5.00857 -0.0255343 0)
(6.61956 0.107852 0)
(8.24621 0.280327 0)
(9.41877 0.405448 0)
(9.87145 0.393159 0)
(9.74076 0.249839 0)
(9.34086 0.0577199 0)
(8.8741 -0.132174 0)
(8.52924 -0.26716 0)
(8.38621 -0.32198 0)
(8.34379 -0.343048 0)
(8.32098 -0.357229 0)
(8.28559 -0.354675 0)
(0.244848 -0.00264774 0)
(1.01612 -0.0159581 0)
(1.95025 -0.0337851 0)
(2.8905 -0.0597194 0)
(3.82495 -0.0865057 0)
(4.94559 -0.0769411 0)
(6.42924 0.0168401 0)
(8.0731 0.172872 0)
(9.40486 0.315682 0)
(10.1006 0.370257 0)
(10.1254 0.283536 0)
(9.76331 0.104117 0)
(9.28218 -0.0976748 0)
(8.84162 -0.271207 0)
(8.57973 -0.364145 0)
(8.48386 -0.387773 0)
(8.45288 -0.39853 0)
(8.43313 -0.415869 0)
(8.3858 -0.431524 0)
(0.277752 -0.00237466 0)
(1.07717 -0.0155009 0)
(2.03251 -0.0339925 0)
(2.99345 -0.0583199 0)
(3.9064 -0.0878243 0)
(4.92701 -0.0985777 0)
(6.26464 -0.0476228 0)
(7.87956 0.081539 0)
(9.33672 0.222226 0)
(10.2464 0.306353 0)
(10.4904 0.280654 0)
(10.2141 0.135828 0)
(9.72761 -0.0615566 0)
(9.22258 -0.257902 0)
(8.83879 -0.397591 0)
(8.64796 -0.448451 0)
(8.58081 -0.44871 0)
(8.556 -0.452328 0)
(8.5356 -0.476358 0)
(8.47877 -0.51507 0)
(0.296519 -0.00176906 0)
(1.1145 -0.0108368 0)
(2.08367 -0.0270039 0)
(3.06323 -0.0493998 0)
(3.96666 -0.0782801 0)
(4.90589 -0.0966932 0)
(6.10768 -0.0726798 0)
(7.63709 0.020979 0)
(9.18944 0.153073 0)
(10.2943 0.243252 0)
(10.7719 0.251536 0)
(10.6632 0.147988 0)
(10.2146 -0.0362007 0)
(9.6741 -0.240896 0)
(9.18581 -0.417383 0)
(8.87087 -0.512809 0)
(8.73178 -0.526056 0)
(8.67832 -0.508873 0)
(8.65274 -0.506834 0)
(8.62621 -0.539172 0)
(8.56396 -0.60065 0)
(0.300281 -0.00108302 0)
(1.11669 -0.00428808 0)
(2.08676 -0.0121381 0)
(3.07887 -0.0288278 0)
(3.98509 -0.0553792 0)
(4.8579 -0.0782669 0)
(5.92966 -0.0649225 0)
(7.34083 0.00358165 0)
(8.92239 0.119872 0)
(10.2132 0.215387 0)
(10.9171 0.234606 0)
(11.0331 0.159611 0)
(10.697 -0.0106279 0)
(10.1737 -0.22121 0)
(9.62383 -0.427055 0)
(9.18415 -0.571143 0)
(8.93668 -0.620503 0)
(8.83235 -0.603499 0)
(8.7808 -0.573614 0)
(8.74574 -0.56641 0)
(8.70781 -0.606067 0)
(8.64081 -0.686305 0)
(0.294938 -0.00110629 0)
(1.08436 0.0015929 0)
(2.03259 0.0061889 0)
(3.02353 0.002883 0)
(3.93943 -0.0158122 0)
(4.77405 -0.041308 0)
(5.71832 -0.0387523 0)
(6.99447 0.0220673 0)
(8.53807 0.127113 0)
(9.97132 0.229117 0)
(10.8962 0.260578 0)
(11.2459 0.201073 0)
(11.1001 0.043737 0)
(10.6514 -0.17808 0)
(10.1114 -0.410272 0)
(9.58868 -0.610548 0)
(9.21905 -0.715266 0)
(9.03129 -0.723634 0)
(8.94898 -0.685744 0)
(8.89064 -0.647988 0)
(8.84017 -0.635452 0)
(8.78725 -0.679967 0)
(8.71026 -0.774645 0)
(0.283593 -0.00075634 0)
(1.02808 0.00553494 0)
(1.92763 0.0212757 0)
(2.89095 0.037746 0)
(3.81239 0.0382605 0)
(4.63397 0.0182244 0)
(5.48196 0.00825413 0)
(6.60093 0.0561924 0)
(8.0634 0.165502 0)
(9.57429 0.278423 0)
(10.7014 0.329933 0)
(11.274 0.28886 0)
(11.3505 0.148123 0)
(11.0413 -0.0820079 0)
(10.5603 -0.342392 0)
(10.035 -0.594341 0)
(9.57331 -0.780303 0)
(9.28371 -0.846268 0)
(9.14747 -0.823405 0)
(9.07641 -0.775626 0)
(9.00613 -0.73439 0)
(8.94192 -0.716644 0)
(8.87176 -0.76532 0)
(8.77765 -0.871159 0)
(0.257282 0.00113383 0)
(0.955939 0.0104477 0)
(1.79216 0.0311711 0)
(2.69567 0.064307 0)
(3.598 0.0937448 0)
(4.41828 0.0962062 0)
(5.21007 0.0839036 0)
(6.18307 0.10826 0)
(7.51479 0.212327 0)
(9.04845 0.351122 0)
(10.3458 0.431444 0)
(11.1273 0.415183 0)
(11.4222 0.301471 0)
(11.3023 0.0807902 0)
(10.9115 -0.206457 0)
(10.4372 -0.496754 0)
(9.94989 -0.762201 0)
(9.57572 -0.926089 0)
(9.36812 -0.959722 0)
(9.27565 -0.919274 0)
(9.20498 -0.872868 0)
(9.12405 -0.831149 0)
(9.05486 -0.810464 0)
(8.96572 -0.867585 0)
(8.85107 -0.982005 0)
(0.204378 0.00443686 0)
(0.865027 0.0193283 0)
(1.64816 0.0389978 0)
(2.47216 0.0778729 0)
(3.31574 0.132681 0)
(4.12335 0.173612 0)
(4.88122 0.181822 0)
(5.75063 0.19325 0)
(6.92277 0.267868 0)
(8.41067 0.422038 0)
(9.84401 0.552459 0)
(10.8276 0.569841 0)
(11.3209 0.48581 0)
(11.4125 0.298111 0)
(11.1616 0.00393252 0)
(10.7453 -0.322989 0)
(10.289 -0.636863 0)
(9.86461 -0.902776 0)
(9.59082 -1.04098 0)
(9.46274 -1.05225 0)
(9.40293 -1.01021 0)
(9.32501 -0.974978 0)
(9.24453 -0.93308 0)
(9.17743 -0.916749 0)
(9.07005 -0.989812 0)
(8.93595 -1.11383 0)
(0.134106 0.00662466 0)
(0.755984 0.0277397 0)
(1.50812 0.0492762 0)
(2.25963 0.082839 0)
(3.01196 0.146173 0)
(3.77075 0.224328 0)
(4.49966 0.276514 0)
(5.28962 0.303017 0)
(6.32444 0.354539 0)
(7.69205 0.486158 0)
(9.20018 0.663636 0)
(10.3878 0.744958 0)
(11.0684 0.691429 0)
(11.3574 0.543251 0)
(11.2988 0.278589 0)
(10.9718 -0.076201 0)
(10.5578 -0.429779 0)
(10.1291 -0.758643 0)
(9.79017 -1.00969 0)
(9.61602 -1.12255 0)
(9.55785 -1.12333 0)
(9.51541 -1.09607 0)
(9.43336 -1.07689 0)
(9.36979 -1.03467 0)
(9.30219 -1.03544 0)
(9.18233 -1.13013 0)
(9.03107 -1.27084 0)
(0.0762552 0.00643357 0)
(0.657736 0.0267805 0)
(1.38309 0.054585 0)
(2.08424 0.0854844 0)
(2.74161 0.140365 0)
(3.40761 0.2337 0)
(4.09231 0.334641 0)
(4.81289 0.404002 0)
(5.73113 0.465482 0)
(6.95452 0.56886 0)
(8.43426 0.748467 0)
(9.80425 0.908292 0)
(10.6888 0.916657 0)
(11.1435 0.800531 0)
(11.2899 0.586687 0)
(11.1177 0.244824 0)
(10.7584 -0.153412 0)
(10.3577 -0.526894 0)
(9.97928 -0.857206 0)
(9.73772 -1.08268 0)
(9.65237 -1.17318 0)
(9.64475 -1.17661 0)
(9.60587 -1.17694 0)
(9.53571 -1.17095 0)
(9.49652 -1.13321 0)
(9.42012 -1.16386 0)
(9.29642 -1.28276 0)
(9.1318 -1.45011 0)
(0.0577569 0.00430519 0)
(0.617139 0.0136486 0)
(1.30202 0.040991 0)
(1.95989 0.0792834 0)
(2.54292 0.125861 0)
(3.09497 0.20893 0)
(3.69668 0.335759 0)
(4.35841 0.459129 0)
(5.16401 0.558646 0)
(6.25049 0.668612 0)
(7.61719 0.8274 0)
(9.07818 1.02839 0)
(10.1932 1.13159 0)
(10.8081 1.06783 0)
(11.1183 0.900271 0)
(11.149 0.613351 0)
(10.8966 0.202424 0)
(10.5352 -0.225201 0)
(10.1615 -0.612687 0)
(9.86054 -0.92971 0)
(9.71575 -1.12637 0)
(9.70152 -1.20057 0)
(9.71839 -1.22008 0)
(9.67925 -1.25133 0)
(9.63885 -1.25136 0)
(9.6139 -1.22957 0)
(9.52665 -1.29592 0)
(9.40302 -1.44218 0)
(9.23628 -1.64073 0)
(0.0919474 0.0014367 0)
(0.671226 -0.00693753 0)
(1.30815 0.00413774 0)
(1.90738 0.0460781 0)
(2.42707 0.0997966 0)
(2.8787 0.16834 0)
(3.35654 0.287142 0)
(3.94769 0.447506 0)
(4.66688 0.59724 0)
(5.61716 0.73995 0)
(6.84214 0.904736 0)
(8.26374 1.11135 0)
(9.57244 1.29536 0)
(10.3935 1.32153 0)
(10.82 1.20415 0)
(11.0314 0.987296 0)
(10.9543 0.62106 0)
(10.6601 0.157385 0)
(10.3153 -0.291709 0)
(9.99274 -0.683379 0)
(9.78599 -0.977386 0)
(9.72834 -1.1479 0)
(9.76234 -1.21602 0)
(9.78068 -1.26152 0)
(9.7481 -1.31662 0)
(9.74131 -1.31799 0)
(9.71244 -1.32607 0)
(9.62192 -1.42564 0)
(9.49789 -1.60396 0)
(9.34519 -1.83125 0)
(0.176684 -0.000670801 0)
(0.840221 -0.0298107 0)
(1.44524 -0.0477799 0)
(1.9617 -0.0221422 0)
(2.40945 0.0407199 0)
(2.775 0.113847 0)
(3.11824 0.212848 0)
(3.58741 0.374858 0)
(4.24257 0.56827 0)
(5.08871 0.750685 0)
(6.17565 0.941862 0)
(7.47327 1.16147 0)
(8.84488 1.39435 0)
(9.90454 1.52378 0)
(10.4683 1.47864 0)
(10.7821 1.32767 0)
(10.8973 1.05247 0)
(10.7299 0.611499 0)
(10.4301 0.112147 0)
(10.1188 -0.35269 0)
(9.87226 -0.736326 0)
(9.76106 -1.0049 0)
(9.77416 -1.15599 0)
(9.8306 -1.23055 0)
(9.8393 -1.30517 0)
(9.8231 -1.37057 0)
(9.83513 -1.37846 0)
(9.79456 -1.42256 0)
(9.70696 -1.55288 0)
(9.58733 -1.7635 0)
(9.45811 -2.01674 0)
(0.297167 -0.00209547 0)
(1.11746 -0.0482955 0)
(1.74487 -0.104306 0)
(2.17006 -0.116478 0)
(2.52047 -0.064696 0)
(2.80514 0.0203846 0)
(3.02427 0.118185 0)
(3.31967 0.261262 0)
(3.86132 0.473265 0)
(4.64988 0.700558 0)
(5.63859 0.916854 0)
(6.8068 1.15442 0)
(8.10692 1.42261 0)
(9.32644 1.64688 0)
(10.1013 1.70067 0)
(10.4856 1.60933 0)
(10.7208 1.43185 0)
(10.7268 1.08812 0)
(10.5051 0.589634 0)
(10.2253 0.0657103 0)
(9.96809 -0.406368 0)
(9.8122 -0.772805 0)
(9.78634 -1.01832 0)
(9.84554 -1.16069 0)
(9.9026 -1.25235 0)
(9.90307 -1.35171 0)
(9.90753 -1.41644 0)
(9.9183 -1.44148 0)
(9.87079 -1.51959 0)
(9.78703 -1.68067 0)
(9.682 -1.91868 0)
(9.57519 -2.19993 0)
(0.435236 -0.00277807 0)
(1.46966 -0.06024 0)
(2.19932 -0.151064 0)
(2.57332 -0.219448 0)
(2.79671 -0.208167 0)
(2.99493 -0.128065 0)
(3.11694 -0.0225241 0)
(3.23124 0.110324 0)
(3.5643 0.314897 0)
(4.25031 0.583244 0)
(5.19782 0.843019 0)
(6.28663 1.08746 0)
(7.4775 1.36764 0)
(8.71163 1.66586 0)
(9.69816 1.8441 0)
(10.2156 1.82671 0)
(10.4926 1.71604 0)
(10.6402 1.50375 0)
(10.5418 1.09302 0)
(10.3065 0.558646 0)
(10.0653 0.0177885 0)
(9.88209 -0.451794 0)
(9.81644 -0.797589 0)
(9.85634 -1.02603 0)
(9.93306 -1.17154 0)
(9.97796 -1.2854 0)
(9.97898 -1.39949 0)
(9.99949 -1.46346 0)
(10 -1.51281 0)
(9.95043 -1.6218 0)
(9.8737 -1.81177 0)
(9.78948 -2.07257 0)
(9.69921 -2.38876 0)
(0.581612 -0.00332226 0)
(1.85759 -0.0666242 0)
(2.75886 -0.179653 0)
(3.16597 -0.305003 0)
(3.27336 -0.365729 0)
(3.35008 -0.321728 0)
(3.40661 -0.219678 0)
(3.39282 -0.0940607 0)
(3.48111 0.0907011 0)
(3.93526 0.373949 0)
(4.80044 0.702367 0)
(5.86944 0.986727 0)
(6.99467 1.25311 0)
(8.16394 1.57008 0)
(9.26193 1.86589 0)
(9.97751 1.97266 0)
(10.3045 1.9088 0)
(10.5075 1.79177 0)
(10.5445 1.53179 0)
(10.3727 1.0706 0)
(10.1567 0.517897 0)
(9.97106 -0.031866 0)
(9.87043 -0.491977 0)
(9.88153 -0.816825 0)
(9.95745 -1.03821 0)
(10.0312 -1.19491 0)
(10.0609 -1.33017 0)
(10.0707 -1.44927 0)
(10.0985 -1.51948 0)
(10.0901 -1.59683 0)
(10.0433 -1.73429 0)
(9.97926 -1.94936 0)
(9.91542 -2.23265 0)
(9.84056 -2.59052 0)
(0.738724 -0.00458038 0)
(2.25998 -0.0708568 0)
(3.3607 -0.193101 0)
(3.88981 -0.354262 0)
(3.95054 -0.498 0)
(3.88113 -0.533722 0)
(3.85272 -0.45943 0)
(3.78383 -0.344444 0)
(3.70163 -0.193868 0)
(3.85915 0.061854 0)
(4.49237 0.436849 0)
(5.51268 0.819957 0)
(6.62628 1.11769 0)
(7.73748 1.40569 0)
(8.845 1.7461 0)
(9.7436 2.00128 0)
(10.203 2.03162 0)
(10.4084 1.95077 0)
(10.5298 1.82281 0)
(10.4503 1.51102 0)
(10.2499 1.02433 0)
(10.0762 0.46514 0)
(9.95873 -0.0858659 0)
(9.9329 -0.531807 0)
(9.9933 -0.839853 0)
(10.0757 -1.06242 0)
(10.139 -1.23409 0)
(10.1586 -1.38648 0)
(10.18 -1.50552 0)
(10.2081 -1.58985 0)
(10.196 -1.6957 0)
(10.1588 -1.85973 0)
(10.113 -2.0978 0)
(10.0685 -2.40822 0)
(10.0193 -2.80974 0)
(0.90842 -0.00574767 0)
(2.67327 -0.0756392 0)
(3.96429 -0.198845 0)
(4.66045 -0.371885 0)
(4.77502 -0.572788 0)
(4.59434 -0.715503 0)
(4.43135 -0.717816 0)
(4.31704 -0.62341 0)
(4.1705 -0.501703 0)
(4.1129 -0.315056 0)
(4.42535 0.0288009 0)
(5.25033 0.49769 0)
(6.35026 0.918636 0)
(7.43644 1.22348 0)
(8.50082 1.53655 0)
(9.49875 1.87729 0)
(10.1598 2.0595 0)
(10.4151 2.02859 0)
(10.5408 1.9506 0)
(10.5569 1.79633 0)
(10.386 1.4439 0)
(10.1989 0.955781 0)
(10.0819 0.398514 0)
(10.0298 -0.14865 0)
(10.0567 -0.578043 0)
(10.1307 -0.875747 0)
(10.2072 -1.10147 0)
(10.261 -1.29124 0)
(10.2781 -1.45531 0)
(10.3094 -1.57415 0)
(10.3331 -1.67864 0)
(10.3244 -1.81059 0)
(10.3037 -1.99893 0)
(10.2819 -2.26242 0)
(10.2647 -2.60586 0)
(10.2548 -3.04759 0)
(1.08723 -0.00739997 0)
(3.09182 -0.0791393 0)
(4.55678 -0.202475 0)
(5.40887 -0.372028 0)
(5.65806 -0.592092 0)
(5.45348 -0.820648 0)
(5.15029 -0.94514 0)
(4.93733 -0.915642 0)
(4.76648 -0.812127 0)
(4.61841 -0.683261 0)
(4.68022 -0.44543 0)
(5.20044 -0.00289325 0)
(6.17425 0.545747 0)
(7.26485 0.982606 0)
(8.28126 1.29637 0)
(9.27162 1.63477 0)
(10.1075 1.94563 0)
(10.5257 2.03878 0)
(10.6392 1.97436 0)
(10.693 1.90124 0)
(10.5948 1.70787 0)
(10.3816 1.33818 0)
(10.2372 0.865257 0)
(10.1754 0.315565 0)
(10.1691 -0.224393 0)
(10.2175 -0.637562 0)
(10.2832 -0.927819 0)
(10.3562 -1.15746 0)
(10.4019 -1.36764 0)
(10.4252 -1.538 0)
(10.4603 -1.66204 0)
(10.4788 -1.78859 0)
(10.4805 -1.94146 0)
(10.4837 -2.1523 0)
(10.4956 -2.44605 0)
(10.5181 -2.82664 0)
(10.5495 -3.30308 0)
(1.27027 -0.00908791 0)
(3.50178 -0.0815467 0)
(5.12805 -0.202639 0)
(6.108 -0.366246 0)
(6.5029 -0.577401 0)
(6.38379 -0.842689 0)
(5.99625 -1.08189 0)
(5.64668 -1.17896 0)
(5.41438 -1.12489 0)
(5.24077 -1.01905 0)
(5.17442 -0.875221 0)
(5.42717 -0.570665 0)
(6.15761 -0.0309481 0)
(7.20032 0.568734 0)
(8.21637 1.00378 0)
(9.14659 1.33332 0)
(10.0322 1.68714 0)
(10.6588 1.93714 0)
(10.8587 1.94765 0)
(10.88 1.87723 0)
(10.8486 1.79543 0)
(10.6601 1.56456 0)
(10.4571 1.2028 0)
(10.3648 0.753584 0)
(10.3378 0.212801 0)
(10.3514 -0.314614 0)
(10.3944 -0.715136 0)
(10.4537 -0.996459 0)
(10.5248 -1.23369 0)
(10.5677 -1.46251 0)
(10.6016 -1.63774 0)
(10.6334 -1.77451 0)
(10.6503 -1.92027 0)
(10.6712 -2.0875 0)
(10.7061 -2.32117 0)
(10.7609 -2.64639 0)
(10.8222 -3.06569 0)
(10.8757 -3.56221 0)
(1.45107 -0.0103817 0)
(3.8861 -0.0809218 0)
(5.6582 -0.196688 0)
(6.74793 -0.354079 0)
(7.25556 -0.550467 0)
(7.28083 -0.805922 0)
(6.91603 -1.10989 0)
(6.45256 -1.34425 0)
(6.10419 -1.41208 0)
(5.89334 -1.34118 0)
(5.78298 -1.2332 0)
(5.86657 -1.0617 0)
(6.34046 -0.678398 0)
(7.23374 -0.0582172 0)
(8.26381 0.558573 0)
(9.17552 0.983293 0)
(10.0149 1.33322 0)
(10.7568 1.68044 0)
(11.146 1.84736 0)
(11.1733 1.8009 0)
(11.1244 1.73909 0)
(11.0001 1.6341 0)
(10.7725 1.38297 0)
(10.6139 1.04656 0)
(10.5596 0.620645 0)
(10.5425 0.0903139 0)
(10.5539 -0.422599 0)
(10.586 -0.811566 0)
(10.6466 -1.0828 0)
(10.7142 -1.33099 0)
(10.7632 -1.57421 0)
(10.8039 -1.75959 0)
(10.8298 -1.9139 0)
(10.8559 -2.07252 0)
(10.9049 -2.25076 0)
(10.9747 -2.5041 0)
(11.0663 -2.85683 0)
(11.1418 -3.30481 0)
(11.1993 -3.80399 0)
(1.62045 -0.011182 0)
(4.22354 -0.0763558 0)
(6.11778 -0.180604 0)
(7.30861 -0.328542 0)
(7.90109 -0.514628 0)
(8.05324 -0.744255 0)
(7.82035 -1.04892 0)
(7.32504 -1.38056 0)
(6.85515 -1.60008 0)
(6.55212 -1.64105 0)
(6.41372 -1.55765 0)
(6.42305 -1.44251 0)
(6.69467 -1.22817 0)
(7.37547 -0.762365 0)
(8.35605 -0.0903051 0)
(9.31349 0.514437 0)
(10.1192 0.928455 0)
(10.8582 1.29398 0)
(11.4137 1.60483 0)
(11.5694 1.684 0)
(11.4744 1.61279 0)
(11.3546 1.55849 0)
(11.1571 1.42958 0)
(10.9412 1.18144 0)
(10.8326 0.875984 0)
(10.7902 0.466098 0)
(10.7687 -0.0506287 0)
(10.7713 -0.551184 0)
(10.8 -0.925972 0)
(10.8606 -1.18956 0)
(10.9285 -1.44761 0)
(10.9877 -1.70425 0)
(11.0286 -1.90764 0)
(11.0555 -2.0798 0)
(11.1064 -2.24453 0)
(11.1827 -2.43293 0)
(11.2787 -2.69691 0)
(11.3747 -3.06472 0)
(11.4447 -3.52195 0)
(11.5054 -4.01824 0)
(1.76776 -0.0114023 0)
(4.49069 -0.0669373 0)
(6.46945 -0.153291 0)
(7.75388 -0.28242 0)
(8.42434 -0.457715 0)
(8.66435 -0.670309 0)
(8.58752 -0.940126 0)
(8.19505 -1.29672 0)
(7.66132 -1.6443 0)
(7.23762 -1.84465 0)
(7.02619 -1.86071 0)
(7.0062 -1.76631 0)
(7.16773 -1.63559 0)
(7.63503 -1.364 0)
(8.47341 -0.823531 0)
(9.46097 -0.132105 0)
(10.314 0.442342 0)
(11.022 0.848703 0)
(11.6374 1.21338 0)
(11.9742 1.45872 0)
(11.9322 1.46523 0)
(11.7526 1.39262 0)
(11.5641 1.33897 0)
(11.3349 1.19977 0)
(11.1599 0.973402 0)
(11.0833 0.692806 0)
(11.0357 0.293015 0)
(11.009 -0.210233 0)
(11.0089 -0.699414 0)
(11.0377 -1.06077 0)
(11.0971 -1.31812 0)
(11.1719 -1.58293 0)
(11.2382 -1.85681 0)
(11.2774 -2.08388 0)
(11.321 -2.26725 0)
(11.4018 -2.43635 0)
(11.4926 -2.63321 0)
(11.5855 -2.89206 0)
(11.658 -3.25866 0)
(11.7249 -3.71002 0)
(11.7874 -4.20507 0)
(1.88582 -0.0112098 0)
(4.66737 -0.0536243 0)
(6.67814 -0.114599 0)
(8.03414 -0.213835 0)
(8.79066 -0.36804 0)
(9.10422 -0.568829 0)
(9.14182 -0.810734 0)
(8.92916 -1.13153 0)
(8.46415 -1.53848 0)
(7.9636 -1.89304 0)
(7.63459 -2.07214 0)
(7.5568 -2.06427 0)
(7.67915 -1.95902 0)
(8.00313 -1.80193 0)
(8.64897 -1.46388 0)
(9.57408 -0.868374 0)
(10.5012 -0.18658 0)
(11.2402 0.352249 0)
(11.852 0.752157 0)
(12.3089 1.08965 0)
(12.4206 1.25302 0)
(12.231 1.21323 0)
(11.9928 1.14969 0)
(11.7617 1.0945 0)
(11.542 0.961183 0)
(11.4116 0.76345 0)
(11.3435 0.496432 0)
(11.2897 0.104584 0)
(11.2644 -0.386347 0)
(11.2685 -0.866556 0)
(11.2992 -1.21813 0)
(11.3627 -1.46911 0)
(11.4443 -1.74035 0)
(11.5123 -2.03585 0)
(11.5564 -2.28504 0)
(11.6282 -2.4703 0)
(11.7246 -2.64831 0)
(11.8075 -2.84156 0)
(11.8694 -3.08688 0)
(11.9213 -3.43667 0)
(11.9846 -3.87541 0)
(12.0442 -4.37014 0)
(1.97295 -0.0110702 0)
(4.74406 -0.0379956 0)
(6.72143 -0.0682078 0)
(8.1063 -0.126385 0)
(8.95069 -0.242849 0)
(9.34779 -0.424224 0)
(9.47214 -0.650404 0)
(9.41191 -0.929337 0)
(9.13034 -1.31076 0)
(8.67172 -1.76234 0)
(8.26247 -2.118 0)
(8.07351 -2.2743 0)
(8.1541 -2.24458 0)
(8.42072 -2.12789 0)
(8.90225 -1.93246 0)
(9.68633 -1.52827 0)
(10.624 -0.904565 0)
(11.4459 -0.252557 0)
(12.0724 0.254773 0)
(12.57 0.641615 0)
(12.8363 0.924796 0)
(12.7435 1.00918 0)
(12.4584 0.950061 0)
(12.1944 0.898665 0)
(11.9598 0.843653 0)
(11.7763 0.726707 0)
(11.6771 0.550349 0)
(11.607 0.28665 0)
(11.5539 -0.0969638 0)
(11.5367 -0.577033 0)
(11.5488 -1.05232 0)
(11.5911 -1.39734 0)
(11.6618 -1.64566 0)
(11.7422 -1.92509 0)
(11.8084 -2.24163 0)
(11.8681 -2.50187 0)
(11.9609 -2.68723 0)
(12.0459 -2.86896 0)
(12.1065 -3.05098 0)
(12.1385 -3.28301 0)
(12.1737 -3.60724 0)
(12.2268 -4.02668 0)
(12.274 -4.51978 0)
(2.02469 -0.0107606 0)
(4.71898 -0.0212974 0)
(6.59572 -0.0184135 0)
(7.95008 -0.0285722 0)
(8.86349 -0.0908265 0)
(9.36055 -0.232933 0)
(9.57207 -0.440913 0)
(9.62133 -0.695757 0)
(9.52494 -1.0212 0)
(9.23168 -1.46719 0)
(8.84845 -1.95492 0)
(8.57972 -2.30809 0)
(8.56539 -2.44137 0)
(8.80599 -2.39493 0)
(9.20675 -2.26414 0)
(9.8268 -2.01958 0)
(10.6926 -1.56058 0)
(11.579 -0.936639 0)
(12.2768 -0.324695 0)
(12.7887 0.156516 0)
(13.1391 0.515161 0)
(13.1966 0.727365 0)
(12.942 0.752471 0)
(12.6226 0.696749 0)
(12.3715 0.654982 0)
(12.1644 0.601525 0)
(12.0266 0.502256 0)
(11.9442 0.332483 0)
(11.8763 0.0663957 0)
(11.8332 -0.310267 0)
(11.8266 -0.783298 0)
(11.8546 -1.25467 0)
(11.9185 -1.59792 0)
(11.989 -1.85287 0)
(12.0587 -2.13937 0)
(12.1229 -2.46734 0)
(12.2027 -2.72602 0)
(12.286 -2.91039 0)
(12.3517 -3.08396 0)
(12.3934 -3.26344 0)
(12.4026 -3.48321 0)
(12.4162 -3.77699 0)
(12.4487 -4.1696 0)
(12.4693 -4.6568 0)
(2.02777 -0.00930172 0)
(4.58276 -0.00105409 0)
(6.30552 0.0329205 0)
(7.56758 0.0716181 0)
(8.51097 0.0740909 0)
(9.11634 -0.00743889 0)
(9.42972 -0.179207 0)
(9.57497 -0.41323 0)
(9.61139 -0.70135 0)
(9.51496 -1.08123 0)
(9.26653 -1.58736 0)
(9.01477 -2.10273 0)
(8.926 -2.45054 0)
(9.10107 -2.56369 0)
(9.48605 -2.50837 0)
(10.0031 -2.35797 0)
(10.731 -2.05825 0)
(11.6156 -1.56489 0)
(12.4067 -0.964767 0)
(12.9782 -0.394924 0)
(13.3628 0.0581027 0)
(13.5329 0.37082 0)
(13.3828 0.510041 0)
(13.0407 0.508243 0)
(12.7512 0.469159 0)
(12.5379 0.427842 0)
(12.375 0.377334 0)
(12.279 0.287467 0)
(12.2117 0.111284 0)
(12.158 -0.161386 0)
(12.1318 -0.536269 0)
(12.1379 -1.00523 0)
(12.1925 -1.46989 0)
(12.2733 -1.82198 0)
(12.3314 -2.0918 0)
(12.3843 -2.37977 0)
(12.4494 -2.70207 0)
(12.5293 -2.94812 0)
(12.5902 -3.12596 0)
(12.6471 -3.29312 0)
(12.6712 -3.47793 0)
(12.6559 -3.68645 0)
(12.6408 -3.94468 0)
(12.6385 -4.30611 0)
(1.96788 -0.00655758 0)
(4.31335 0.0255813 0)
(5.84486 0.091481 0)
(6.96772 0.172206 0)
(7.88912 0.240172 0)
(8.59495 0.235745 0)
(9.03819 0.123157 0)
(9.28625 -0.0789023 0)
(9.42637 -0.340344 0)
(9.47909 -0.665928 0)
(9.41162 -1.10228 0)
(9.26305 -1.65798 0)
(9.18269 -2.1927 0)
(9.29768 -2.53216 0)
(9.65503 -2.63279 0)
(10.1588 -2.57651 0)
(10.7707 -2.39938 0)
(11.5661 -2.04708 0)
(12.4111 -1.54434 0)
(13.0846 -0.982976 0)
(13.5291 -0.455752 0)
(13.7688 -0.0410412 0)
(13.7346 0.208425 0)
(13.4239 0.291515 0)
(13.0912 0.298091 0)
(12.8698 0.272259 0)
(12.7016 0.221447 0)
(12.5892 0.173587 0)
(12.5304 0.0806834 0)
(12.4869 -0.111604 0)
(12.458 -0.396022 0)
(12.4506 -0.775666 0)
(12.4761 -1.23934 0)
(12.5581 -1.69613 0)
(12.6368 -2.07083 0)
(12.6755 -2.35753 0)
(12.7113 -2.6387 0)
(12.769 -2.9321 0)
(12.8305 -3.16078 0)
(12.8838 -3.33023 0)
(12.9293 -3.49692 0)
(12.9283 -3.68977 0)
(12.8839 -3.88413 0)
(12.8327 -4.10667 0)
(1.84186 -0.00352601 0)
(3.89358 0.0562888 0)
(5.20004 0.161825 0)
(6.15476 0.280554 0)
(7.00079 0.403874 0)
(7.77251 0.482877 0)
(8.36767 0.452632 0)
(8.75824 0.302014 0)
(9.00699 0.0682876 0)
(9.16929 -0.223151 0)
(9.25084 -0.589271 0)
(9.24735 -1.07546 0)
(9.24189 -1.66737 0)
(9.35479 -2.21254 0)
(9.67719 -2.54159 0)
(10.1916 -2.64153 0)
(10.7855 -2.58944 0)
(11.4713 -2.37931 0)
(12.2858 -1.98701 0)
(13.0464 -1.49797 0)
(13.5937 -0.98235 0)
(13.9089 -0.500676 0)
(13.9834 -0.142291 0)
(13.7546 0.0340954 0)
(13.3919 0.0984782 0)
(13.1431 0.131165 0)
(12.9889 0.101485 0)
(12.8688 0.0374571 0)
(12.8106 -0.0121249 0)
(12.7904 -0.120579 0)
(12.7787 -0.336135 0)
(12.7766 -0.637613 0)
(12.7881 -1.02622 0)
(12.8389 -1.47948 0)
(12.9332 -1.93504 0)
(12.9924 -2.34137 0)
(13.013 -2.64253 0)
(13.0277 -2.90019 0)
(13.0683 -3.15231 0)
(13.1177 -3.36325 0)
(13.1643 -3.52373 0)
(13.1833 -3.69344 0)
(13.1488 -3.89008 0)
(13.0722 -4.06896 0)
(12.9831 -4.26056 0)
(1.65724 -0.000324256 0)
(3.33272 0.0850722 0)
(4.36826 0.236291 0)
(5.1418 0.400948 0)
(5.87184 0.56807 0)
(6.64392 0.721033 0)
(7.37197 0.792332 0)
(7.94368 0.724733 0)
(8.34922 0.531957 0)
(8.63385 0.262697 0)
(8.83112 -0.0631422 0)
(8.95497 -0.469337 0)
(9.05389 -0.992207 0)
(9.21268 -1.60669 0)
(9.52403 -2.15138 0)
(10.0371 -2.47142 0)
(10.6714 -2.58325 0)
(11.3316 -2.5364 0)
(12.0692 -2.29182 0)
(12.8512 -1.88096 0)
(13.4984 -1.42146 0)
(13.9193 -0.953798 0)
(14.1016 -0.52673 0)
(13.9993 -0.248158 0)
(13.6584 -0.129302 0)
(13.3633 -0.04755 0)
(13.2159 0.000146705 0)
(13.1136 -0.0494745 0)
(13.0498 -0.1246 0)
(13.049 -0.184378 0)
(13.0697 -0.318917 0)
(13.0885 -0.562499 0)
(13.1092 -0.884619 0)
(13.1416 -1.28128 0)
(13.2125 -1.7224 0)
(13.2973 -2.18906 0)
(13.3353 -2.62755 0)
(13.3342 -2.93292 0)
(13.3302 -3.15442 0)
(13.356 -3.36808 0)
(13.3936 -3.5567 0)
(13.4153 -3.70811 0)
(13.3952 -3.87923 0)
(13.3245 -4.07438 0)
(13.2166 -4.23995 0)
(1.42334 0.00294906 0)
(2.66003 0.109286 0)
(3.37719 0.300691 0)
(3.96044 0.519251 0)
(4.56283 0.732877 0)
(5.27194 0.939618 0)
(6.05795 1.10944 0)
(6.79062 1.16146 0)
(7.38832 1.05329 0)
(7.84606 0.81621 0)
(8.18984 0.505707 0)
(8.43285 0.13939 0)
(8.62496 -0.301344 0)
(8.85208 -0.846644 0)
(9.17542 -1.46982 0)
(9.67614 -2.00175 0)
(10.3461 -2.318 0)
(11.0603 -2.45181 0)
(11.7721 -2.40731 0)
(12.5302 -2.13668 0)
(13.2336 -1.73137 0)
(13.7539 -1.30922 0)
(14.0534 -0.889796 0)
(14.0987 -0.53684 0)
(13.8624 -0.348327 0)
(13.5415 -0.251511 0)
(13.3729 -0.14466 0)
(13.3046 -0.106798 0)
(13.2532 -0.181369 0)
(13.2572 -0.266946 0)
(13.3122 -0.347551 0)
(13.3681 -0.516282 0)
(13.4102 -0.790121 0)
(13.4535 -1.13249 0)
(13.5034 -1.53598 0)
(13.5798 -1.97071 0)
(13.6442 -2.45846 0)
(13.6625 -2.91814 0)
(13.6423 -3.21859 0)
(13.6275 -3.40651 0)
(13.636 -3.58199 0)
(13.6447 -3.74494 0)
(13.6255 -3.88602 0)
(13.5631 -4.05408 0)
(13.4588 -4.245 0)
(13.3231 -4.40046 0)
(1.14574 0.00573202 0)
(1.9049 0.129252 0)
(2.27523 0.34908 0)
(2.65533 0.614402 0)
(3.14824 0.882032 0)
(3.77288 1.13444 0)
(4.53525 1.37354 0)
(5.34815 1.55152 0)
(6.09757 1.58352 0)
(6.739 1.43858 0)
(7.26942 1.15767 0)
(7.68814 0.799181 0)
(7.99661 0.387 0)
(8.28894 -0.0799884 0)
(8.64725 -0.636171 0)
(9.12494 -1.25206 0)
(9.79252 -1.76126 0)
(10.5744 -2.08166 0)
(11.338 -2.24223 0)
(12.088 -2.19703 0)
(12.8239 -1.91875 0)
(13.4174 -1.53828 0)
(13.8126 -1.15441 0)
(13.9992 -0.788774 0)
(13.9282 -0.530884 0)
(13.6665 -0.416427 0)
(13.4675 -0.317178 0)
(13.4156 -0.203964 0)
(13.405 -0.193927 0)
(13.42 -0.290318 0)
(13.4962 -0.390944 0)
(13.5972 -0.503162 0)
(13.6769 -0.712444 0)
(13.74 -1.01471 0)
(13.8053 -1.37772 0)
(13.8654 -1.79177 0)
(13.9355 -2.2313 0)
(13.9785 -2.73599 0)
(13.9795 -3.20817 0)
(13.9498 -3.5018 0)
(13.9189 -3.65871 0)
(13.8972 -3.79576 0)
(13.8608 -3.93296 0)
(13.7963 -4.06044 0)
(13.6954 -4.22241 0)
(13.5607 -4.40761 0)
(13.3999 -4.55414 0)
(0.828408 0.00910535 0)
(1.08787 0.146902 0)
(1.10421 0.385232 0)
(1.27445 0.681707 0)
(1.6719 0.997184 0)
(2.24363 1.29749 0)
(2.95435 1.58088 0)
(3.76781 1.84565 0)
(4.5864 2.02905 0)
(5.34351 2.04872 0)
(6.02805 1.87739 0)
(6.6381 1.55718 0)
(7.14116 1.14585 0)
(7.54461 0.686618 0)
(7.95735 0.199177 0)
(8.43536 -0.359185 0)
(9.05339 -0.950071 0)
(9.8533 -1.43212 0)
(10.7027 -1.76553 0)
(11.4979 -1.95108 0)
(12.2616 -1.90809 0)
(12.9302 -1.64503 0)
(13.4038 -1.30095 0)
(13.6926 -0.954684 0)
(13.7875 -0.65619 0)
(13.6687 -0.497579 0)
(13.4945 -0.428939 0)
(13.445 -0.327636 0)
(13.4785 -0.234681 0)
(13.5252 -0.257941 0)
(13.6176 -0.371103 0)
(13.7588 -0.495115 0)
(13.8938 -0.650484 0)
(13.9887 -0.90435 0)
(14.0774 -1.23077 0)
(14.1595 -1.6223 0)
(14.2282 -2.05451 0)
(14.2847 -2.50352 0)
(14.3098 -3.01972 0)
(14.296 -3.49998 0)
(14.2508 -3.78238 0)
(14.1933 -3.90908 0)
(14.1276 -4.01252 0)
(14.0424 -4.12364 0)
(13.937 -4.23525 0)
(13.801 -4.38872 0)
(13.6367 -4.56607 0)
(13.4537 -4.70233 0)
(0.477437 0.0123159 0)
(0.22496 0.161992 0)
(-0.103577 0.413449 0)
(-0.145228 0.727168 0)
(0.155243 1.0752 0)
(0.703971 1.42191 0)
(1.39466 1.74413 0)
(2.18753 2.05166 0)
(3.02258 2.33444 0)
(3.82161 2.52498 0)
(4.57124 2.5439 0)
(5.29082 2.36188 0)
(5.97336 2.01115 0)
(6.56571 1.54814 0)
(7.08993 1.04676 0)
(7.62394 0.539785 0)
(8.21064 -0.0120809 0)
(8.95178 -0.563825 0)
(9.84176 -1.02095 0)
(10.7244 -1.37277 0)
(11.5372 -1.57892 0)
(12.2757 -1.5498 0)
(12.8471 -1.32222 0)
(13.2177 -1.01827 0)
(13.4359 -0.714111 0)
(13.4862 -0.497167 0)
(13.4075 -0.419816 0)
(13.3775 -0.376197 0)
(13.4564 -0.290491 0)
(13.5585 -0.237838 0)
(13.6727 -0.29064 0)
(13.8393 -0.41964 0)
(14.0329 -0.577291 0)
(14.1916 -0.788645 0)
(14.3039 -1.08639 0)
(14.4207 -1.43907 0)
(14.5198 -1.86999 0)
(14.5943 -2.32377 0)
(14.6376 -2.78581 0)
(14.6403 -3.31173 0)
(14.6011 -3.78876 0)
(14.5301 -4.05486 0)
(14.438 -4.15654 0)
(14.3243 -4.23314 0)
(14.1972 -4.31736 0)
(14.0541 -4.41252 0)
(13.8833 -4.55484 0)
(13.6901 -4.72081 0)
(0.101381 0.0153382 0)
(-0.662225 0.173622 0)
(-1.31629 0.43237 0)
(-1.56407 0.75433 0)
(-1.37252 1.12134 0)
(-0.85581 1.50352 0)
(-0.151789 1.87013 0)
(0.641427 2.20857 0)
(1.48742 2.53335 0)
(2.31712 2.8269 0)
(3.08508 3.02574 0)
(3.81812 3.05595 0)