/*--------------------------------*- C++ -*----------------------------------*\
| =========                 |                                                 |
| \\      /  F ield         | OpenFOAM: The Open Source CFD Toolbox           |
|  \\    /   O peration     | Version:  5.x                                   |
|   \\  /    A nd           | Web:      www.OpenFOAM.org                      |
|    \\/     M anipulation  |                                                 |
\*---------------------------------------------------------------------------*/
FoamFile
{
    version     2.0;
    format      ascii;
    class       volVectorField;
    location    "0.5";
    object      Urom;
}
// * * * * * * * * * * * * * * * * * * * * * * * * * * * * * * * * * * * * * //

dimensions      [0 1 -1 0 0 0 0];

internalField   nonuniform List<vector> 
17568
(
(17.2724 0.614881 0)
(13.1877 0.558485 0)
(20.2333 1.08262 0)
(9.51472 0.282801 0)
(20.154 1.35755 0)
(20.1095 0.789763 0)
(6.89598 0.0989255 0)
(18.9723 1.11462 0)
(20.9091 1.21403 0)
(20.0422 0.607003 0)
(5.47413 0.0074266 0)
(17.2271 0.806677 0)
(21.2593 1.14443 0)
(20.6989 1.0541 0)
(20.0314 0.482217 0)
(4.73796 -0.0200364 0)
(15.551 0.512486 0)
(20.9943 0.970027 0)
(21.3109 1.05482 0)
(20.5244 0.930578 0)
(20.0234 0.385015 0)
(4.30671 -0.0161169 0)
(14.1425 0.304414 0)
(20.3719 0.759834 0)
(21.6026 0.949872 0)
(21.0677 0.96909 0)
(20.4044 0.812617 0)
(20.017 0.308883 0)
(4.01628 -0.00757034 0)
(13.0003 0.189641 0)
(19.6106 0.580834 0)
(21.6159 0.811841 0)
(21.4299 0.88886 0)
(20.8653 0.882813 0)
(20.3123 0.702645 0)
(20.0125 0.250019 0)
(3.79177 -0.00166974 0)
(12.0867 0.133019 0)
(18.8219 0.455609 0)
(21.4506 0.67971 0)
(21.6152 0.784132 0)
(21.2012 0.821431 0)
(20.703 0.798784 0)
(20.2415 0.604437 0)
(20.0094 0.204603 0)
(3.60116 0.00120827 0)
(11.3506 0.104182 0)
(18.0625 0.371481 0)
(21.1805 0.578639 0)
(21.6825 0.681628 0)
(21.3994 0.736924 0)
(21.0094 0.757989 0)
(20.5695 0.719635 0)
(20.1878 0.518547 0)
(20.0073 0.169309 0)
(3.43393 0.00214238 0)
(10.7443 0.0870227 0)
(17.3539 0.31123 0)
(20.8536 0.505636 0)
(21.6752 0.600817 0)
(21.5122 0.653998 0)
(21.1985 0.690159 0)
(20.8479 0.699931 0)
(20.4608 0.645469 0)
(20.1471 0.444419 0)
(20.0057 0.141546 0)
(3.28728 0.00217893 0)
(10.2326 0.0747069 0)
(16.7003 0.264912 0)
(20.4963 0.449531 0)
(21.6203 0.542419 0)
(21.5782 0.586431 0)
(21.3122 0.622767 0)
(21.0282 0.646651 0)
(20.7106 0.645485 0)
(20.373 0.576283 0)
(20.1161 0.381075 0)
(20.0045 0.119392 0)
(3.15931 0.00195021 0)
(9.79278 0.064719 0)
(16.1 0.22788 0)
(20.1218 0.40293 0)
(21.5319 0.497977 0)
(21.618 0.536923 0)
(21.3885 0.565233 0)
(21.1388 0.59206 0)
(20.8822 0.605247 0)
(20.5946 0.593437 0)
(20.3024 0.512375 0)
(20.0926 0.327278 0)
(20.0036 0.101453 0)
(3.04754 0.00170466 0)
(9.41025 0.0563227 0)
(15.5498 0.197636 0)
(19.7383 0.362566 0)
(21.4156 0.460704 0)
(21.6404 0.499786 0)
(21.4472 0.521044 0)
(21.2146 0.543341 0)
(20.9901 0.561253 0)
(20.7563 0.565359 0)
(20.4969 0.54348 0)
(20.2459 0.453996 0)
(20.0744 0.281739 0)
(20.0029 0.086726 0)
(2.94943 0.001492 0)
(9.07458 0.0492973 0)
(15.0469 0.172646 0)
(19.3524 0.326997 0)
(21.2743 0.427487 0)
(21.6474 0.469173 0)
(21.4968 0.487326 0)
(21.2749 0.503633 0)
(21.0648 0.520599 0)
(20.8616 0.530399 0)
(20.6478 0.526898 0)
(20.415 0.495676 0)
(20.2007 0.401241 0)
(20.0603 0.243229 0)
(20.0024 0.074498 0)
(2.86274 0.00130445 0)
(8.77783 0.0434449 0)
(14.5879 0.151877 0)
(18.9702 0.295465 0)
(21.1115 0.39713 0)
(21.6384 0.442078 0)
(21.5395 0.459712 0)
(21.3276 0.472162 0)
(21.1246 0.485525 0)
(20.9353 0.497043 0)
(20.7502 0.499915 0)
(20.5543 0.489754 0)
(20.3466 0.450235 0)
(20.1645 0.354026 0)
(20.0492 0.210604 0)
(20.002 0.0642496 0)
(2.78572 0.00112921 0)
(8.51372 0.0385293 0)
(14.1693 0.134508 0)
(18.5962 0.267496 0)
(20.9314 0.369111 0)
(21.6137 0.417313 0)
(21.5751 0.435562 0)
(21.3758 0.446122 0)
(21.1769 0.456409 0)
(20.9944 0.46675 0)
(20.8226 0.473014 0)
(20.6531 0.470009 0)
(20.4739 0.453801 0)
(20.2897 0.407399 0)
(20.1355 0.312078 0)
(20.0405 0.182858 0)
(20.0016 0.0555915 0)
(2.71708 0.000963737 0)
(8.2774 0.0343288 0)
(13.7872 0.11984 0)
(18.2341 0.242684 0)
(20.738 0.343173 0)
(21.5737 0.394327 0)
(21.6029 0.413754 0)
(21.4199 0.423368 0)
(21.2245 0.431813 0)
(21.0461 0.440294 0)
(20.881 0.447412 0)
(20.7244 0.44874 0)
(20.5686 0.440723 0)
(20.4049 0.418987 0)
(20.2426 0.367362 0)
(20.1121 0.27499 0)
(20.0335 0.159143 0)
(20.0013 0.0482258 0)
(2.65581 0.000812906 0)
(8.06506 0.0306707 0)
(13.4381 0.107292 0)
(17.8858 0.220626 0)
(20.5352 0.319143 0)
(21.5199 0.372799 0)
(21.6231 0.393739 0)
(21.46 0.402889 0)
(21.2685 0.410159 0)
(21.0929 0.417288 0)
(20.9322 0.423816 0)
(20.7818 0.427544 0)
(20.6383 0.424386 0)
(20.4947 0.412052 0)
(20.3458 0.385354 0)
(20.2037 0.330244 0)
(20.0932 0.242281 0)
(20.0277 0.138766 0)
(20.0011 0.0419197 0)
(2.60115 0.000665175 0)
(7.87378 0.027435 0)
(13.1186 0.096404 0)
(17.5526 0.200929 0)
(20.3261 0.296846 0)
(21.4538 0.35252 0)
(21.6355 0.375143 0)
(21.4964 0.384194 0)
(21.3093 0.390564 0)
(21.1358 0.396771 0)
(20.9782 0.402536 0)
(20.8323 0.406899 0)
(20.6946 0.407203 0)
(20.5626 0.400096 0)
(20.4302 0.383989 0)
(20.2954 0.353016 0)
(20.1713 0.296082 0)
(20.0779 0.21345 0)
(20.0233 0.121166 0)
(20.0009 0.0364883 0)
(2.55256 0.000522916 0)
(7.70114 0.0245146 0)
(12.8263 0.0868178 0)
(17.2358 0.183228 0)
(20.1135 0.2761 0)
(21.3769 0.333316 0)
(21.6408 0.357689 0)
(21.5295 0.366931 0)
(21.3478 0.372603 0)
(21.1756 0.378035 0)
(21.0203 0.383217 0)
(20.8778 0.387466 0)
(20.7442 0.389499 0)
(20.6179 0.3865 0)
(20.496 0.375986 0)
(20.3741 0.356554 0)
(20.2525 0.322116 0)
(20.1446 0.264817 0)
(20.0654 0.188016 0)
(20.0195 0.105886 0)
(20.0008 0.0317832 0)
(2.50955 0.000333594 0)
(7.54537 0.0218445 0)
(12.5583 0.0782546 0)
(16.9353 0.167217 0)
(19.8998 0.25672 0)
(21.2906 0.315033 0)
(21.6389 0.341152 0)
(21.5592 0.350821 0)
(21.3841 0.355982 0)
(21.2131 0.360716 0)
(21.0592 0.365381 0)
(20.9193 0.369405 0)
(20.7893 0.372011 0)
(20.6665 0.371632 0)
(20.5499 0.365571 0)
(20.4373 0.352138 0)
(20.3251 0.329794 0)
(20.2161 0.292786 0)
(20.1223 0.236323 0)
(20.0552 0.165541 0)
(20.0164 0.0925521 0)
(20.0007 0.0276837 0)
(2.47196 0.000196792 0)
(7.40492 0.019336 0)
(12.313 0.0704873 0)
(16.6514 0.152603 0)
(19.6871 0.238542 0)
(21.1965 0.297522 0)
(21.6301 0.325345 0)
(21.5858 0.335625 0)
(21.4189 0.340454 0)
(21.2489 0.344577 0)
(21.0957 0.34873 0)
(20.9574 0.352511 0)
(20.8302 0.355272 0)
(20.7108 0.356146 0)
(20.5975 0.353351 0)
(20.4897 0.344539 0)
(20.3854 0.328611 0)
(20.2825 0.30378 0)
(20.1852 0.265118 0)
(20.104 0.210429 0)
(20.0467 0.145635 0)
(20.0139 0.0808589 0)
(20.0006 0.0240913 0)
(2.43942 2.84867e-05 0)
(7.27892 0.0169072 0)
(12.0882 0.0633612 0)
(16.384 0.139162 0)
(19.477 0.221389 0)
(21.0958 0.280665 0)
(21.6151 0.31009 0)
(21.6092 0.321148 0)
(21.4522 0.325804 0)
(21.2834 0.329416 0)
(21.1305 0.333077 0)
(20.9931 0.33657 0)
(20.8678 0.339359 0)
(20.7511 0.340789 0)
(20.641 0.339872 0)
(20.5361 0.334736 0)
(20.4362 0.323509 0)
(20.3396 0.305453 0)
(20.2455 0.278602 0)
(20.1591 0.239162 0)
(20.0887 0.186933 0)
(20.0397 0.127952 0)
(20.0119 0.0705522 0)
(20.0005 0.0209249 0)
(2.4123 -0.00018973 0)
(7.16608 0.0145949 0)
(11.8831 0.0566428 0)
(16.1328 0.12663 0)
(19.271 0.205129 0)
(20.9902 0.264322 0)
(21.5941 0.295249 0)
(21.6295 0.307199 0)
(21.4843 0.311847 0)
(21.317 0.315047 0)
(21.164 0.318262 0)
(21.027 0.321437 0)
(20.9028 0.324167 0)
(20.7883 0.325889 0)
(20.6809 0.325938 0)
(20.5786 0.323203 0)
(20.4813 0.315871 0)
(20.3886 0.302571 0)
(20.2993 0.282717 0)
(20.2137 0.254352 0)
(20.1369 0.214919 0)
(20.0759 0.165618 0)
(20.034 0.112187 0)
(20.0102 0.0614209 0)
(20.0004 0.0181176 0)
(2.39011 -0.000399447 0)
(7.06682 0.01223 0)
(11.6958 0.0502362 0)
(15.8979 0.114872 0)
(19.0703 0.189556 0)
(20.8807 0.248413 0)
(21.5678 0.280667 0)
(21.6468 0.293622 0)
(21.5153 0.298405 0)
(21.3499 0.301302 0)
(21.1967 0.304129 0)
(21.0597 0.306992 0)
(20.9362 0.309588 0)
(20.823 0.31147 0)
(20.7176 0.312075 0)
(20.6179 0.31071 0)
(20.5228 0.306175 0)
(20.4323 0.296847 0)
(20.3462 0.281792 0)
(20.2638 0.260461 0)
(20.1862 0.231107 0)
(20.1182 0.19235 0)
(20.0652 0.146268 0)
(20.0292 0.0980796 0)
(20.0088 0.0532874 0)
(20.0004 0.0156134 0)
(2.37412 -0.000683645 0)
(6.97944 0.00980682 0)
(11.5267 0.0439908 0)
(15.6785 0.103585 0)
(18.8761 0.17459 0)
(20.7687 0.232759 0)
(21.5366 0.266248 0)
(21.6612 0.280248 0)
(21.5453 0.28532 0)
(21.3824 0.288021 0)
(21.2289 0.290533 0)
(21.0916 0.293109 0)
(20.9682 0.29554 0)
(20.8558 0.297476 0)
(20.7518 0.298448 0)
(20.6542 0.297903 0)
(20.5614 0.29511 0)
(20.4727 0.288839 0)
(20.3886 0.277748 0)
(20.3086 0.261235 0)
(20.2326 0.238751 0)
(20.1624 0.208927 0)
(20.1025 0.171385 0)
(20.0563 0.128674 0)
(20.0252 0.0854015 0)
(20.0076 0.0460028 0)
(20.0003 0.0133654 0)
(2.36313 -0.000949551 0)
(6.90649 0.00717586 0)
(11.3736 0.0377403 0)
(15.4755 0.0926584 0)
(18.689 0.159923 0)
(20.6555 0.217334 0)
(21.5014 0.251817 0)
(21.6729 0.266953 0)
(21.5742 0.272427 0)
(21.4146 0.275057 0)
(21.2606 0.277326 0)
(21.1229 0.279664 0)
(20.9994 0.281928 0)
(20.8873 0.283851 0)
(20.7842 0.285057 0)
(20.688 0.285077 0)
(20.5972 0.283367 0)
(20.5104 0.279156 0)
(20.4278 0.271262 0)
(20.3493 0.258651 0)
(20.275 0.240954 0)
(20.2053 0.21765 0)
(20.1421 0.187841 0)
(20.089 0.151931 0)
(20.0488 0.112642 0)
(20.0218 0.0739562 0)
(20.0066 0.03944 0)
(20.0003 0.0113344 0)
(2.36086 -0.00143539 0)
(6.84417 0.00438095 0)
(11.2392 0.0313288 0)
(15.2873 0.0817671 0)
(18.5108 0.145584 0)
(20.5421 0.201792 0)
(21.4627 0.237316 0)
(21.682 0.253561 0)
(21.6023 0.259589 0)
(21.4467 0.26225 0)
(21.2924 0.264371 0)
(21.1539 0.266526 0)
(21.0301 0.268651 0)
(20.9181 0.27053 0)
(20.8154 0.271877 0)
(20.7201 0.272305 0)
(20.6306 0.271348 0)
(20.5457 0.268471 0)
(20.4645 0.262879 0)
(20.3872 0.253507 0)
(20.3141 0.239624 0)
(20.2452 0.221001 0)
(20.1814 0.197213 0)
(20.1246 0.167854 0)
(20.0777 0.13388 0)
(20.0425 0.0979881 0)
(20.0191 0.063573 0)
(20.0058 0.0334914 0)
(20.0002 0.00948631 0)
(2.36348 -0.00180224 0)
(6.8007 0.00105372 0)
(11.1186 0.0244804 0)
(15.1167 0.0708804 0)
(18.3409 0.131055 0)
(20.43 0.186318 0)
(21.4212 0.22247 0)
(21.6888 0.239953 0)
(21.6295 0.246628 0)
(21.4789 0.24946 0)
(21.3242 0.251517 0)
(21.1847 0.253566 0)
(21.0602 0.255594 0)
(20.9481 0.257438 0)
(20.8456 0.25887 0)
(20.7508 0.259588 0)
(20.6624 0.259201 0)
(20.5787 0.257259 0)
(20.4991 0.253229 0)
(20.423 0.246324 0)
(20.3508 0.235646 0)
(20.2826 0.220722 0)
(20.219 0.201427 0)
(20.1606 0.177486 0)
(20.1095 0.148947 0)
(20.0681 0.11712 0)
(20.0372 0.0845515 0)
(20.0168 0.0541026 0)
(20.0051 0.0280639 0)
(20.0002 0.00778923 0)
(2.38116 -0.00275282 0)
(6.7652 -0.00257481 0)
(11.0213 0.0170576 0)
(14.9596 0.0593193 0)
(18.182 0.116431 0)
(20.3196 0.170294 0)
(21.3778 0.207295 0)
(21.6936 0.225945 0)
(21.6562 0.233404 0)
(21.511 0.236515 0)
(21.3563 0.238625 0)
(21.2157 0.240643 0)
(21.0904 0.242638 0)
(20.9777 0.244477 0)
(20.8752 0.24598 0)
(20.7807 0.246912 0)
(20.6928 0.24696 0)
(20.61 0.245738 0)
(20.5317 0.242816 0)
(20.4569 0.237664 0)
(20.3855 0.229537 0)
(20.3179 0.217737 0)
(20.2545 0.201999 0)
(20.1956 0.182277 0)
(20.1425 0.158496 0)
(20.0967 0.131082 0)
(20.06 0.101534 0)
(20.0329 0.0721791 0)
(20.0148 0.045415 0)
(20.0046 0.0230681 0)
(20.0002 0.00622497 0)
(2.40242 -0.00331636 0)
(6.7605 -0.00760377 0)
(10.9336 0.00866413 0)
(14.824 0.0472537 0)
(18.0323 0.100902 0)
(20.2132 0.153822 0)
(21.3331 0.191327 0)
(21.6968 0.21133 0)
(21.6823 0.219715 0)
(21.5435 0.223269 0)
(21.3888 0.22553 0)
(21.247 0.227615 0)
(21.1206 0.229649 0)
(21.0073 0.231537 0)
(20.9044 0.233129 0)
(20.8099 0.234242 0)
(20.7222 0.234632 0)
(20.6401 0.233981 0)
(20.5626 0.231917 0)
(20.4889 0.228031 0)
(20.4185 0.221804 0)
(20.3515 0.212573 0)
(20.2883 0.199841 0)
(20.2293 0.183501 0)
(20.1751 0.163593 0)
(20.1267 0.140258 0)
(20.0857 0.114207 0)
(20.053 0.087004 0)
(20.0291 0.0607345 0)
(20.0132 0.0373826 0)
(20.0041 0.0184531 0)
(20.0002 0.00476837 0)
(2.45416 -0.00538853 0)
(6.75618 -0.0128248 0)
(10.8818 -0.00136599 0)
(14.6992 0.0335555 0)
(17.8975 0.0847217 0)
(20.1102 0.136136 0)
(21.2882 0.174555 0)
(21.6987 0.195804 0)
(21.7081 0.205333 0)
(21.5764 0.20949 0)
(21.422 0.212068 0)
(21.2787 0.214325 0)
(21.151 0.21649 0)
(21.0368 0.218494 0)
(20.9334 0.22022 0)
(20.8386 0.221518 0)
(20.7511 0.222198 0)
(20.6694 0.222014 0)
(20.5924 0.220646 0)
(20.5195 0.217745 0)
(20.4499 0.212923 0)
(20.3837 0.205688 0)
(20.3208 0.195486 0)
(20.2617 0.182007 0)
(20.207 0.165267 0)
(20.1571 0.145405 0)
(20.113 0.122766 0)
(20.0762 0.0982532 0)
(20.0472 0.0734168 0)
(20.026 0.0500791 0)
(20.0118 0.0299279 0)
(20.0037 0.0141444 0)
(20.0002 0.00339402 0)
(2.50826 -0.00634249 0)
(6.81174 -0.0226559 0)
(10.8291 -0.0129879 0)
(14.606 0.0182053 0)
(17.7715 0.0664437 0)
(20.0145 0.117381 0)
(21.2437 0.156299 0)
(21.7 0.179232 0)
(21.7339 0.189981 0)
(21.61 0.194972 0)
(21.4558 0.19802 0)
(21.3111 0.200597 0)
(21.1819 0.203001 0)
(21.0666 0.205212 0)
(20.9623 0.207136 0)
(20.8672 0.208655 0)
(20.7795 0.209618 0)
(20.6978 0.209833 0)
(20.6212 0.209048 0)
(20.5488 0.206959 0)
(20.48 0.203235 0)
(20.4144 0.197516 0)
(20.352 0.189353 0)
(20.2929 0.178325 0)
(20.2378 0.164281 0)
(20.187 0.147333 0)
(20.1412 0.127734 0)
(20.1012 0.105997 0)
(20.0681 0.0831491 0)
(20.0422 0.0606496 0)
(20.0234 0.0401218 0)
(20.0108 0.0229408 0)
(20.0034 0.0100735 0)
(20.0001 0.00208909 0)
(2.61517 -0.0134504 0)
(6.85082 -0.0291546 0)
(10.8434 -0.0300003 0)
(14.5158 -0.000120731 0)
(17.6676 0.0461871 0)
(19.9234 0.096223 0)
(21.2015 0.136473 0)
(21.7011 0.16102 0)
(21.7599 0.17342 0)
(21.6444 0.179433 0)
(21.4907 0.183165 0)
(21.3444 0.186225 0)
(21.2135 0.189007 0)
(21.0967 0.191536 0)
(20.9916 0.193745 0)
(20.8957 0.195546 0)
(20.8077 0.196817 0)
(20.7259 0.197411 0)
(20.6494 0.197133 0)
(20.5773 0.195734 0)
(20.5089 0.192925 0)
(20.4439 0.188405 0)
(20.382 0.18184 0)
(20.3232 0.172846 0)
(20.2679 0.161139 0)
(20.2164 0.146698 0)
(20.1693 0.129728 0)
(20.1273 0.110583 0)
(20.0911 0.0899208 0)
(20.0613 0.068803 0)
(20.0381 0.0486137 0)
(20.0211 0.0307361 0)
(20.0098 0.0163213 0)
(20.0031 0.006205 0)
(20.0001 0.000830529 0)
(2.80641 -0.00769994 0)
(7.00904 -0.0595898 0)
(10.8314 -0.0474465 0)
(14.4807 -0.0241097 0)
(17.5697 0.0221353 0)
(19.8447 0.0723772 0)
(21.161 0.114018 0)
(21.7029 0.140837 0)
(21.7865 0.155134 0)
(21.6799 0.16255 0)
(21.5269 0.167219 0)
(21.3787 0.170965 0)
(21.2459 0.174302 0)
(21.1275 0.177287 0)
(21.021 0.179895 0)
(20.9244 0.18206 0)
(20.8358 0.183698 0)
(20.7537 0.18469 0)
(20.6771 0.184887 0)
(20.6051 0.184097 0)
(20.537 0.182076 0)
(20.4725 0.178559 0)
(20.4109 0.173275 0)
(20.3524 0.165926 0)
(20.297 0.156209 0)
(20.2451 0.143968 0)
(20.1972 0.129294 0)
(20.1537 0.112468 0)
(20.1152 0.0939479 0)
(20.0823 0.0744786 0)
(20.0555 0.055144 0)
(20.0346 0.0371854 0)
(20.0194 0.0218069 0)
(20.0091 0.010011 0)
(20.0029 0.00246634 0)
(20.0001 -0.00040313 0)
(2.76572 -0.1201 0)
(7.14944 -0.0556665 0)
(10.9556 -0.0879173 0)
(14.4316 -0.0517948 0)
(17.5083 -0.00836512 0)
(19.7714 0.0443399 0)
(21.1262 0.0881447 0)
(21.7059 0.117853 0)
(21.8142 0.134597 0)
(21.7167 0.143874 0)
(21.5644 0.149816 0)
(21.4142 0.154537 0)
(21.2791 0.158634 0)
(21.1589 0.16226 0)
(21.0511 0.165407 0)
(20.9533 0.168053 0)
(20.8639 0.170137 0)
(20.7814 0.171578 0)
(20.7044 0.172262 0)
(20.6325 0.17204 0)
(20.5645 0.170723 0)
(20.5001 0.168083 0)
(20.4389 0.163878 0)
(20.3807 0.157871 0)
(20.3253 0.14981 0)
(20.2733 0.139482 0)
(20.2248 0.126848 0)
(20.1801 0.112089 0)
(20.1399 0.0955607 0)
(20.1047 0.0778011 0)
(20.0749 0.0596261 0)
(20.0506 0.042065 0)
(20.0318 0.0262522 0)
(20.018 0.0132543 0)
(20.0085 0.00389956 0)
(20.0028 -0.00119963 0)
(20.0001 -0.00163275 0)
(7.44706 -0.223697 0)
(4.42781 -0.226798 0)
(11.0095 -0.120034 0)
(14.4842 -0.103011 0)
(17.4468 -0.0445113 0)
(19.7187 0.00880225 0)
(21.095 0.0577869 0)
(21.7115 0.0909168 0)
(21.8434 0.111153 0)
(21.7553 0.122758 0)
(21.6037 0.130539 0)
(21.4513 0.136554 0)
(21.3137 0.141717 0)
(21.1913 0.146198 0)
(21.0817 0.150077 0)
(20.9827 0.153346 0)
(20.8923 0.155992 0)
(20.809 0.157963 0)
(20.7317 0.159178 0)
(20.6595 0.159529 0)
(20.5914 0.158871 0)
(20.5272 0.15702 0)
(20.4661 0.153767 0)
(20.4081 0.148902 0)
(20.353 0.142221 0)
(20.3008 0.133528 0)
(20.2518 0.122704 0)
(20.2064 0.109809 0)
(20.1649 0.0951034 0)
(20.128 0.0790012 0)
(20.0957 0.062122 0)
(20.0686 0.0452807 0)
(20.0465 0.0294681 0)
(20.0294 0.015722 0)
(20.0168 0.00494771 0)
(20.0081 -0.00209871 0)
(20.0027 -0.00485411 0)
(20.0001 -0.00284465 0)
(11.2986 -0.285315 0)
(7.89789 -0.386281 0)
(2.02824 0.397624 0)
(5.82872 -0.264317 0)
(14.4963 -0.15839 0)
(17.4459 -0.104797 0)
(19.6712 -0.0337276 0)
(21.074 0.0190957 0)
(21.7201 0.059223 0)
(21.8749 0.0834042 0)
(21.7961 0.098623 0)
(21.6451 0.10869 0)
(21.4901 0.116598 0)
(21.3497 0.123157 0)
(21.2248 0.128812 0)
(21.1133 0.133645 0)
(21.0127 0.137733 0)
(20.9211 0.141088 0)
(20.837 0.143702 0)
(20.759 0.145529 0)
(20.6863 0.146495 0)
(20.6181 0.146494 0)
(20.5537 0.145385 0)
(20.4927 0.142999 0)
(20.4348 0.139148 0)
(20.3798 0.133655 0)
(20.3276 0.126356 0)
(20.2784 0.117117 0)
(20.2324 0.105906 0)
(20.19 0.0928766 0)
(20.1516 0.0783406 0)
(20.1175 0.0627841 0)
(20.088 0.0468491 0)
(20.0632 0.0313608 0)
(20.0433 0.0172606 0)
(20.0277 0.00545559 0)
(20.016 -0.00321877 0)
(20.0078 -0.00808306 0)
(20.0026 -0.008457 0)
(20.0001 -0.004019 0)
(14.6567 -0.320078 0)
(11.4716 -0.46329 0)
(8.61982 -0.50561 0)
(0.747915 0.981875 0)
(3.71639 0.135424 0)
(7.00736 -0.513548 0)
(17.4348 -0.175924 0)
(19.6551 -0.100085 0)
(21.0583 -0.0276893 0)
(21.7336 0.0187158 0)
(21.9094 0.0506268 0)
(21.8395 0.069997 0)
(21.6889 0.0836831 0)
(21.5311 0.0939711 0)
(21.3873 0.102528 0)
(21.2597 0.109705 0)
(21.1458 0.115817 0)
(21.0434 0.12096 0)
(20.9504 0.125221 0)
(20.865 0.128628 0)
(20.7863 0.131179 0)
(20.7131 0.132836 0)
(20.6445 0.13353 0)
(20.5799 0.133159 0)
(20.5188 0.131591 0)
(20.461 0.128674 0)
(20.4059 0.124245 0)
(20.3537 0.118163 0)
(20.3045 0.110307 0)
(20.2581 0.100607 0)
(20.215 0.0891188 0)
(20.1755 0.0760566 0)
(20.1399 0.061801 0)
(20.1085 0.0468642 0)
(20.0815 0.0319208 0)
(20.059 0.0177838 0)
(20.0407 0.00530534 0)
(20.0264 -0.00466511 0)
(20.0155 -0.0113784 0)
(20.0078 -0.013984 0)
(20.0027 -0.0119488 0)
(20.0001 -0.00517301 0)
(17.4945 -0.331622 0)
(14.7433 -0.49732 0)
(11.7485 -0.64533 0)
(9.4758 -0.736098 0)
(0.341935 1.19248 0)
(2.22417 0.483253 0)
(4.94415 -0.249387 0)
(7.97524 -0.927966 0)
(19.6399 -0.181425 0)
(21.0568 -0.0970273 0)
(21.7514 -0.0307413 0)
(21.9473 0.00894147 0)
(21.8859 0.0360619 0)
(21.7354 0.0540858 0)
(21.5743 0.0680387 0)
(21.4268 0.0791459 0)
(21.2959 0.08844 0)
(21.1794 0.0962048 0)
(21.0749 0.102727 0)
(20.9802 0.108139 0)
(20.8937 0.112538 0)
(20.8139 0.115964 0)
(20.7399 0.118426 0)
(20.6708 0.119888 0)
(20.6059 0.120289 0)
(20.5446 0.119534 0)
(20.4867 0.117504 0)
(20.4316 0.114064 0)
(20.3794 0.109083 0)
(20.33 0.102454 0)
(20.2833 0.0941016 0)
(20.2397 0.0840278 0)
(20.1994 0.0723519 0)
(20.1627 0.0593591 0)
(20.1298 0.0454577 0)
(20.101 0.0311996 0)
(20.0762 0.017268 0)
(20.0556 0.00442407 0)
(20.0388 -0.00651919 0)
(20.0255 -0.0147939 0)
(20.0153 -0.019425 0)
(20.0078 -0.019701 0)
(20.0028 -0.0153785 0)
(20.0001 -0.00633546 0)
(19.6509 -0.328756 0)
(17.5143 -0.508234 0)
(14.8214 -0.698991 0)
(12.2046 -0.895605 0)
(10.2633 -1.10054 0)
(0.18072 1.35826 0)
(1.30071 0.722453 0)
(3.27118 -0.0133115 0)
(5.90803 -0.741017 0)
(8.65333 -1.44693 0)
(21.0568 -0.183976 0)
(21.7751 -0.100973 0)
(21.9888 -0.0423604 0)
(21.9357 -0.00663339 0)
(21.785 0.0189368 0)
(21.6202 0.0374686 0)
(21.4684 0.0523304 0)
(21.3339 0.064359 0)
(21.2144 0.074359 0)
(21.1074 0.0826569 0)
(21.0108 0.0895457 0)
(20.9228 0.0951863 0)
(20.8418 0.0996876 0)
(20.7669 0.103104 0)
(20.6971 0.105447 0)
(20.6318 0.106692 0)
(20.5701 0.106783 0)
(20.5119 0.105633 0)
(20.4568 0.10314 0)
(20.4045 0.0991894 0)
(20.3549 0.0936834 0)
(20.3081 0.0865517 0)
(20.2641 0.0777708 0)
(20.2232 0.0673962 0)
(20.1856 0.0556251 0)
(20.1515 0.0427707 0)
(20.1212 0.0292839 0)
(20.0946 0.0157357 0)
(20.072 0.00278152 0)
(20.0531 -0.00883579 0)
(20.0376 -0.0183742 0)
(20.0253 -0.0247827 0)
(20.0155 -0.0272142 0)
(20.0081 -0.0253121 0)
(20.0029 -0.0188289 0)
(20.0002 -0.00752512 0)
(21.0605 -0.322146 0)
(19.6314 -0.502332 0)
(17.4976 -0.710243 0)
(14.97 -0.964759 0)
(12.6891 -1.23439 0)
(10.8207 -1.54177 0)
(0.0404623 1.42295 0)
(0.735644 0.876832 0)
(1.99725 0.171127 0)
(4.04629 -0.568843 0)
(6.59738 -1.33866 0)
(8.90634 -1.90887 0)
(21.7986 -0.190223 0)
(22.0331 -0.112521 0)
(21.9885 -0.059386 0)
(21.8377 -0.0247283 0)
(21.6689 0.001168 0)
(21.5123 0.0208662 0)
(21.3737 0.0367555 0)
(21.2508 0.0496532 0)
(21.1411 0.0602971 0)
(21.0423 0.0690715 0)
(20.9525 0.0762816 0)
(20.8701 0.0821104 0)
(20.7941 0.0866816 0)
(20.7234 0.0900547 0)
(20.6574 0.0922524 0)
(20.5954 0.0932582 0)
(20.5369 0.0930226 0)
(20.4816 0.0914707 0)
(20.4291 0.0885169 0)
(20.3795 0.0840728 0)
(20.3325 0.0780736 0)
(20.2883 0.0704861 0)
(20.2468 0.0613316 0)
(20.2085 0.0507369 0)
(20.1735 0.0389303 0)
(20.1419 0.0262741 0)
(20.114 0.0132369 0)
(20.0896 0.000378357 0)
(20.0689 -0.0116469 0)
(20.0515 -0.0221553 0)
(20.0373 -0.0300663 0)
(20.0256 -0.0344433 0)
(20.016 -0.0348512 0)
(20.0085 -0.0309452 0)
(20.0031 -0.0223566 0)
(20.0002 -0.00875752 0)
(21.8162 -0.31964 0)
(21.0359 -0.489187 0)
(19.5689 -0.698219 0)
(17.4773 -0.969539 0)
(15.1275 -1.29646 0)
(13.0414 -1.61323 0)
(11.0138 -1.95327 0)
(-0.13199 1.40383 0)
(0.262751 0.954566 0)
(1.08617 0.260681 0)
(2.40452 -0.43959 0)
(4.61803 -1.21771 0)
(6.96936 -1.82227 0)
(9.21845 -2.19784 0)
(22.0756 -0.202095 0)
(22.0431 -0.129203 0)
(21.8929 -0.0786462 0)
(21.72 -0.0433685 0)
(21.5585 -0.0164221 0)
(21.4152 0.00451587 0)
(21.2886 0.0213727 0)
(21.176 0.0350525 0)
(21.0746 0.0462726 0)
(20.9828 0.055466 0)
(20.8989 0.0629507 0)
(20.8216 0.068928 0)
(20.7499 0.0735316 0)
(20.6831 0.0768316 0)
(20.6205 0.078859 0)
(20.5617 0.0796031 0)
(20.506 0.0790265 0)
(20.4534 0.0770669 0)
(20.4035 0.0736585 0)
(20.3564 0.0687387 0)
(20.3119 0.062277 0)
(20.2701 0.054276 0)
(20.2313 0.0448118 0)
(20.1955 0.0340484 0)
(20.163 0.022261 0)
(20.1339 0.00983472 0)
(20.1082 -0.00276224 0)
(20.0858 -0.014966 0)
(20.0669 -0.0261677 0)
(20.051 -0.0352939 0)
(20.0376 -0.0413627 0)
(20.0263 -0.0438983 0)
(20.0167 -0.0424962 0)
(20.0091 -0.0366912 0)
(20.0034 -0.0260062 0)
(20.0002 -0.0100567 0)
(22.1097 -0.323888 0)
(21.8074 -0.478175 0)
(20.968 -0.676506 0)
(19.4755 -0.939855 0)
(17.4075 -1.28706 0)
(15.2159 -1.64127 0)
(13.1416 -1.96363 0)
(11.0563 -2.26258 0)
(-0.317268 1.28711 0)
(-0.295133 0.927922 0)
(0.252768 0.213481 0)
(0.954203 -0.399007 0)
(2.72061 -1.08007 0)
(5.2298 -1.67918 0)
(7.58305 -2.06824 0)
(9.70063 -2.34001 0)
(22.0951 -0.218032 0)
(21.9492 -0.148047 0)
(21.7732 -0.0981079 0)
(21.6067 -0.0616543 0)
(21.4586 -0.0335503 0)
(21.328 -0.0114984 0)
(21.212 0.00621855 0)
(21.108 0.0205823 0)
(21.0139 0.0323077 0)
(20.9282 0.0418609 0)
(20.8494 0.0495699 0)
(20.7766 0.0556538 0)
(20.7089 0.060254 0)
(20.6457 0.0634504 0)
(20.5862 0.0652809 0)
(20.5302 0.0657435 0)
(20.4774 0.0648136 0)
(20.4272 0.0624434 0)
(20.3799 0.0585859 0)
(20.3352 0.0532118 0)
(20.2932 0.046316 0)
(20.2539 0.0379467 0)
(20.2175 0.0282153 0)
(20.1843 0.0173285 0)
(20.1541 0.00559215 0)
(20.1273 -0.00660886 0)
(20.1038 -0.0187937 0)
(20.0834 -0.0304356 0)
(20.0661 -0.0404928 0)
(20.0514 -0.0479721 0)
(20.0386 -0.052392 0)
(20.0275 -0.0533272 0)
(20.0179 -0.050264 0)
(20.0097 -0.0426217 0)
(20.0036 -0.0298469 0)
(20.0002 -0.0114427 0)
(22.1386 -0.33352 0)
(22.1204 -0.473289 0)
(21.7592 -0.655457 0)
(20.8596 -0.89907 0)
(19.3095 -1.23034 0)
(17.2569 -1.61163 0)
(15.1623 -1.94283 0)
(13.0072 -2.25886 0)
(11.2451 -2.43393 0)
(-0.471499 1.07303 0)
(-0.869204 0.785108 0)
(-0.699735 0.047601 0)
(-0.464863 -0.487726 0)
(0.942478 -0.939391 0)
(3.64932 -1.45811 0)
(6.14613 -1.87773 0)
(8.30423 -2.19201 0)
(10.2364 -2.42984 0)
(22.0026 -0.235525 0)
(21.8264 -0.166973 0)
(21.656 -0.116826 0)
(21.5034 -0.0792535 0)
(21.3686 -0.0501202 0)
(21.2491 -0.0271321 0)
(21.1421 -0.00867282 0)
(21.0456 0.00627472 0)
(20.9579 0.0184314 0)
(20.8776 0.0282808 0)
(20.8035 0.0361651 0)
(20.7348 0.0423117 0)
(20.6706 0.0468699 0)
(20.6106 0.0499307 0)
(20.5542 0.0515378 0)
(20.5009 0.0517008 0)
(20.4506 0.0504051 0)
(20.403 0.0476211 0)
(20.3581 0.0433259 0)
(20.3158 0.0375122 0)
(20.2762 0.0302149 0)
(20.2394 0.0215086 0)
(20.2055 0.0115448 0)
(20.1746 0.00056259 0)
(20.1469 -0.0111277 0)
(20.1223 -0.0231235 0)
(20.1009 -0.0349789 0)
(20.0825 -0.0456968 0)
(20.0666 -0.0542964 0)
(20.0527 -0.0603161 0)
(20.0404 -0.0633432 0)
(20.0293 -0.062863 0)
(20.0193 -0.0582511 0)
(20.0107 -0.0488413 0)
(20.004 -0.0339361 0)
(20.0002 -0.0129377 0)
(22.0474 -0.345706 0)
(22.1618 -0.474037 0)
(22.0966 -0.640318 0)
(21.6687 -0.859848 0)
(20.6807 -1.15938 0)
(19.0369 -1.52969 0)
(17.0197 -1.88627 0)
(14.926 -2.20126 0)
(12.888 -2.46042 0)
(11.5368 -2.52865 0)
(-0.568257 0.788444 0)
(-1.30552 0.566123 0)
(-1.56439 -0.169789 0)
(-1.69437 -0.628825 0)
(-0.583484 -0.789633 0)
(2.16242 -1.14548 0)
(4.89514 -1.61369 0)
(7.09827 -1.99114 0)
(9.06571 -2.27876 0)
(10.7814 -2.49385 0)
(21.8764 -0.25267 0)
(21.7045 -0.184958 0)
(21.5484 -0.13448 0)
(21.4099 -0.0960501 0)
(21.2869 -0.066086 0)
(21.177 -0.042342 0)
(21.078 -0.023267 0)
(20.9882 -0.00783524 0)
(20.906 0.0046734 0)
(20.8306 0.0147559 0)
(20.7606 0.0227591 0)
(20.6957 0.028923 0)
(20.6349 0.0334017 0)
(20.5779 0.0362937 0)
(20.5242 0.0376514 0)
(20.4735 0.0374957 0)
(20.4257 0.0358228 0)
(20.3806 0.0326242 0)
(20.338 0.0278958 0)
(20.2982 0.0216648 0)
(20.261 0.0139844 0)
(20.2267 0.00496699 0)
(20.1952 -0.00520613 0)
(20.1668 -0.0162877 0)
(20.1414 -0.0279486 0)
(20.119 -0.0398148 0)
(20.0997 -0.0509436 0)
(20.083 -0.060379 0)
(20.0682 -0.0676956 0)
(20.0549 -0.0725153 0)
(20.0428 -0.0743593 0)
(20.0315 -0.0726187 0)
(20.0211 -0.0665863 0)
(20.0119 -0.0554379 0)
(20.0045 -0.0383367 0)
(20.0003 -0.0145659 0)
(21.9176 -0.358088 0)
(22.0745 -0.47798 0)
(22.1553 -0.631271 0)
(22.0339 -0.828275 0)
(21.5161 -1.09211 0)
(20.3963 -1.42693 0)
(18.6674 -1.78704 0)
(16.685 -2.10899 0)
(14.5746 -2.41204 0)
(12.9002 -2.57052 0)
(11.8344 -2.58737 0)
(-0.608919 0.463687 0)
(-1.5339 0.321433 0)
(-2.1032 -0.365312 0)
(-2.35402 -0.694402 0)
(-1.42402 -0.591829 0)
(0.8317 -0.73116 0)
(3.78384 -1.25019 0)
(6.15081 -1.72341 0)
(8.08113 -2.07385 0)
(9.84965 -2.3465 0)
(11.2871 -2.53021 0)
(21.7491 -0.268504 0)
(21.592 -0.20161 0)
(21.4508 -0.150989 0)
(21.3248 -0.111997 0)
(21.212 -0.0814134 0)
(21.1106 -0.057088 0)
(21.0186 -0.0375264 0)
(20.9347 -0.021714 0)
(20.8576 -0.00893454 0)
(20.7865 0.00131302 0)
(20.7206 0.00938144 0)
(20.6589 0.0155127 0)
(20.6014 0.0198711 0)
(20.5472 0.0225611 0)
(20.4961 0.0236444 0)
(20.448 0.0231496 0)
(20.4026 0.0210911 0)
(20.36 0.0174736 0)
(20.3198 0.0123226 0)
(20.2823 0.00568156 0)
(20.2476 -0.00236438 0)
(20.2157 -0.0116776 0)
(20.1866 -0.0220658 0)
(20.1606 -0.0332628 0)
(20.1376 -0.0449612 0)
(20.1175 -0.056273 0)
(20.1001 -0.0662765 0)
(20.0848 -0.0745879 0)
(20.0709 -0.080874 0)
(20.0581 -0.0847139 0)
(20.046 -0.0855586 0)
(20.0344 -0.0827317 0)
(20.0234 -0.0753748 0)
(20.0133 -0.0625059 0)
(20.0052 -0.0431172 0)
(20.0003 -0.0163547 0)
(21.7848 -0.36935 0)
(21.9426 -0.482708 0)
(22.0755 -0.625883 0)
(22.1141 -0.804832 0)
(21.918 -1.03623 0)
(21.2737 -1.3283 0)
(20.0027 -1.66121 0)
(18.2315 -1.98783 0)
(16.215 -2.30022 0)
(14.2932 -2.54628 0)
(12.9564 -2.62495 0)
(12.0952 -2.6038 0)
(-0.600924 0.127912 0)
(-1.57224 0.0881421 0)
(-2.28523 -0.499978 0)
(-2.42165 -0.623219 0)
(-1.46368 -0.329247 0)
(-0.043412 -0.263406 0)
(2.73716 -0.770979 0)
(5.41304 -1.37866 0)
(7.32868 -1.81582 0)
(9.04689 -2.14996 0)
(10.5714 -2.41322 0)
(11.6241 -2.50748 0)
(21.6308 -0.282691 0)
(21.4894 -0.216829 0)
(21.3617 -0.166332 0)
(21.2468 -0.12706 0)
(21.1431 -0.0960714 0)
(21.049 -0.0713337 0)
(20.9633 -0.0514159 0)
(20.8848 -0.0353276 0)
(20.8124 -0.0223609 0)
(20.7454 -0.0120176 0)
(20.6829 -0.00394487 0)
(20.6245 0.00210622 0)
(20.5699 0.00630417 0)
(20.5184 0.00875796 0)
(20.47 0.00953879 0)
(20.4243 0.00868799 0)
(20.3814 0.00623029 0)
(20.341 0.00219433 0)
(20.3033 -0.00337965 0)
(20.2683 -0.0104222 0)
(20.2359 -0.0188267 0)
(20.2065 -0.0284446 0)
(20.18 -0.0390644 0)
(20.1564 -0.0504366 0)
(20.1359 -0.061727 0)
(20.1179 -0.0720521 0)
(20.1021 -0.0810691 0)
(20.0878 -0.0884964 0)
(20.0747 -0.0939713 0)
(20.0622 -0.0970294 0)
(20.05 -0.0970771 0)
(20.038 -0.0933129 0)
(20.026 -0.084729 0)
(20.015 -0.0701463 0)
(20.0059 -0.0483544 0)
(20.0003 -0.0183356 0)
(21.6607 -0.378991 0)
(21.8053 -0.48675 0)
(21.9443 -0.621601 0)
(22.0456 -0.786827 0)
(22.0285 -0.992339 0)
(21.7297 -1.24514 0)
(20.9317 -1.53557 0)
(19.528 -1.84437 0)
(17.7071 -2.14979 0)
(15.6988 -2.44983 0)
(14.1039 -2.60685 0)
(12.9865 -2.62901 0)
(12.2627 -2.54589 0)
(-0.545816 -0.189849 0)
(-1.46765 -0.123293 0)
(-2.19002 -0.570174 0)
(-2.1397 -0.437136 0)
(-1.15075 -0.0120655 0)
(-0.312476 0.15694 0)
(1.81718 -0.218045 0)
(4.68328 -0.953304 0)
(6.76195 -1.52134 0)
(8.37391 -1.91533 0)
(9.91925 -2.25687 0)
(11.0643 -2.44153 0)
(11.7572 -2.37772 0)
(21.5229 -0.295192 0)
(21.3958 -0.230614 0)
(21.28 -0.180518 0)
(21.1747 -0.141221 0)
(21.0791 -0.11003 0)
(20.9917 -0.0850426 0)
(20.9117 -0.0649005 0)
(20.838 -0.0486405 0)
(20.7699 -0.0355747 0)
(20.7065 -0.0252077 0)
(20.6474 -0.0171896 0)
(20.5921 -0.0112692 0)
(20.5403 -0.00727534 0)
(20.4914 -0.00509178 0)
(20.4456 -0.00464043 0)
(20.4023 -0.00586836 0)
(20.3618 -0.00873446 0)
(20.3239 -0.013197 0)
(20.2886 -0.0191948 0)
(20.2561 -0.0266395 0)
(20.2263 -0.035415 0)
(20.1993 -0.0453552 0)
(20.1753 -0.0562609 0)
(20.1543 -0.067348 0)
(20.136 -0.0777716 0)
(20.12 -0.0872285 0)
(20.1055 -0.0954844 0)
(20.0922 -0.102236 0)
(20.0796 -0.1071 0)
(20.0673 -0.10959 0)
(20.0549 -0.109022 0)
(20.0421 -0.104478 0)
(20.0293 -0.0947648 0)
(20.0171 -0.0784704 0)
(20.0068 -0.0541354 0)
(20.0004 -0.0205443 0)