/*--------------------------------*- C++ -*----------------------------------*\
| =========                 |                                                 |
| \\      /  F ield         | OpenFOAM: The Open Source CFD Toolbox           |
|  \\    /   O peration     | Version:  2412                                  |
|   \\  /    A nd           | Website:  www.openfoam.com                      |
|    \\/     M anipulation  |                                                 |
\*---------------------------------------------------------------------------*/
FoamFile
{
    version     2.0;
    format      ascii;
    arch        "LSB;label=32;scalar=64";
    class       surfaceScalarField;
    location    "0.1";
    object      phi;
}
// * * * * * * * * * * * * * * * * * * * * * * * * * * * * * * * * * * * * * //

dimensions      [1 0 -1 0 0 0 0];

oriented        oriented;

internalField   nonuniform List<scalar> 
23538
(
-9.700630073e-11
8.374259607e-11
-2.860761701e-10
1.763095046e-10
-5.000222983e-10
2.02209428e-10
-6.995644665e-10
1.893245593e-10
-8.66808145e-10
1.590127892e-10
-9.935712816e-10
1.209413595e-10
-1.075298989e-09
7.867779367e-11
-1.10823798e-09
3.296647484e-11
-1.08842463e-09
-1.647361149e-11
-1.011546922e-09
-7.00596961e-11
-8.73160427e-10
-1.279925623e-10
-6.69047139e-10
-1.901175294e-10
-3.955858006e-10
-2.559060549e-10
-5.012589777e-11
-3.244533419e-10
3.686452313e-10
-3.944779023e-10
8.603460302e-10
-4.643382814e-10
1.422583244e-09
-5.320608196e-10
2.050691159e-09
-5.953973108e-10
2.7375629e-09
-6.519145438e-10
3.473604368e-09
-6.991128481e-10
4.246830606e-09
-7.345821906e-10
5.043149637e-09
-7.561605278e-10
5.846788091e-09
-7.621097201e-10
6.640880086e-09
-7.512595864e-10
7.40814842e-09
-7.231177577e-10
8.131643863e-09
-6.779179092e-10
8.795460851e-09
-6.166154921e-10
9.385383408e-09
-5.40814451e-10
9.889413064e-09
-4.52659088e-10
1.029813428e-08
-3.546789803e-10
1.060416175e-08
-2.488701664e-10
1.080160193e-08
-1.367084308e-10
1.088795339e-08
-2.160798681e-11
1.086494546e-08
9.214229322e-11
1.073731042e-08
2.014594314e-10
1.051206786e-08
3.039376824e-10
1.019805215e-08
3.976260895e-10
9.805485324e-09
4.809682195e-10
9.345445046e-09
5.528842631e-10
8.829897447e-09
6.125553308e-10
8.270627666e-09
6.596943449e-10
7.679424362e-09
6.942275265e-10
7.067632369e-09
7.164768469e-10
6.445921628e-09
7.270326921e-10
5.824117291e-09
7.266997035e-10
5.211095145e-09
7.164433814e-10
4.614737921e-09
6.973151282e-10
4.041967798e-09
6.703902598e-10
3.498818052e-09
6.367016695e-10
2.990553479e-09
5.971999501e-10
2.521779203e-09
5.527343938e-10
2.09652743e-09
5.040817571e-10
1.718280587e-09
4.519815114e-10
1.389870381e-09
3.972668849e-10
1.112981203e-09
3.412410894e-10
8.879860612e-10
2.853514899e-10
7.144642237e-10
2.305032991e-10
5.913293498e-10
1.774467034e-10
5.165225623e-10
1.272270617e-10
4.869027013e-10
8.097367071e-11
4.98256134e-10
3.979568895e-11
5.453827342e-10
4.698605631e-12
6.222457082e-10
-2.348224344e-11
7.220972068e-10
-4.411157742e-11
8.378892424e-10
-5.684273133e-11
9.623951508e-10
-6.154527531e-11
1.088407545e-09
-5.835134492e-11
1.208959363e-09
-4.760887867e-11
1.317459054e-09
-2.982308301e-11
1.407771455e-09
-5.605209688e-12
1.474258065e-09
2.43768985e-11
1.511780673e-09
5.943649747e-11
1.515706063e-09
9.888858253e-11
1.481914465e-09
1.420455667e-10
1.406850309e-09
1.881949394e-10
1.287622187e-09
2.365641755e-10
1.12215108e-09
2.862723811e-10
9.093748036e-10
3.362874147e-10
6.494807226e-10
3.853927417e-10
3.441504277e-10
4.321773077e-10
-3.236262406e-12
4.750464013e-10
-3.874463286e-10
5.122740509e-10
-8.013392916e-10
5.420772575e-10
-1.235939663e-09
5.627233914e-10
-1.680644759e-09
5.726624117e-10
-2.123587442e-09
5.70667769e-10
-2.552140816e-09
5.559732762e-10
-2.953520411e-09
5.2838929e-10
-3.315445576e-09
4.883589631e-10
-3.626830423e-09
4.369666344e-10
-3.878302144e-09
3.758941866e-10
-4.062729872e-09
3.073022064e-10
-4.175672451e-09
2.338218033e-10
-4.21574176e-09
1.58481988e-10
-4.184664358e-09
8.43915448e-11
-4.08688468e-09
1.429939215e-11
-3.928885401e-09
-4.972299908e-11
-3.718651811e-09
-1.061162896e-10
-3.465376629e-09
-1.536111523e-10
-3.179061985e-09
-1.913317081e-10
-2.870092036e-09
-2.188272141e-10
-2.548772334e-09
-2.361178889e-10
-2.224954924e-09
-2.436051478e-10
-1.907665825e-09
-2.420707411e-10
-1.604775109e-09
-2.326383998e-10
-1.322770381e-09
-2.16673958e-10
-1.066623686e-09
-1.956864179e-10
-8.397500437e-10
-1.712359468e-10
-6.440534749e-10
-1.448454236e-10
-4.800413883e-10
-1.179305916e-10
-3.469973916e-10
-9.17331408e-11
-2.432053705e-10
-6.727743042e-11
-1.661824945e-10
-4.534379394e-11
-1.129237366e-10
-2.647235332e-11
-8.012598825e-11
-1.096366206e-11
-6.439097052e-11
1.085568208e-12
-6.238305221e-11
9.752401378e-12
-7.095164515e-11
1.523986799e-11
-8.720934892e-11
1.783543244e-11
-1.085769289e-10
1.787990081e-11
-1.328087967e-10
1.574152065e-11
-1.579968878e-10
1.179320279e-11
-1.825581278e-10
6.400416788e-12
-2.05217999e-10
-9.618792928e-14
-2.249826417e-10
-7.384422535e-12
-2.411015249e-10
-1.519042455e-11
-2.53028416e-10
-2.328883624e-11
-2.60370084e-10
-3.150800965e-11
-2.628273839e-10
-3.974240332e-11
-2.601140926e-10
-4.796657241e-11
-2.51875266e-10
-5.624894953e-11
-2.376057759e-10
-6.473999645e-11
-2.166180599e-10
-7.362316378e-11
-1.881326777e-10
-8.299369826e-11
-1.516177374e-10
-9.261323129e-11
-1.075517115e-10
-1.014755025e-10
-5.880073182e-11
-1.072027078e-10
-1.272763769e-11
-1.052998233e-10
1.599503531e-11
-8.846399437e-11
-4.400439088e-11
-1.891199072e-10
2.603520483e-10
-5.256367852e-10
5.008343196e-10
-8.862569435e-10
5.518914123e-10
-1.201696098e-09
4.953990942e-10
-1.43596698e-09
3.859801271e-10
-1.57039711e-09
2.505668937e-10
-1.59341457e-09
9.976618252e-11
-1.495540266e-09
-6.365298165e-11
-1.267462488e-09
-2.398807484e-10
-8.997973378e-10
-4.294811711e-10
-3.834586091e-10
-6.324376488e-10
2.896968703e-10
-8.477273701e-10
1.126105699e-09
-1.073191027e-09
2.129675905e-09
-1.305469571e-09
3.301015425e-09
-1.54004827e-09
4.636722056e-09
-1.771325405e-09
6.128761571e-09
-1.992742349e-09
7.763997348e-09
-2.196977398e-09
9.52392885e-09
-2.376240067e-09
1.138468203e-08
-2.522652722e-09
1.33173258e-08
-2.628710993e-09
1.528851332e-08
-2.687789238e-09
1.72614506e-08
-2.694635202e-09
1.91971474e-08
-2.645795644e-09
2.105585974e-08
-2.539921443e-09
2.279860731e-08
-2.377909073e-09
2.438865606e-08
-2.162852796e-09
2.579283445e-08
-1.899818184e-09
2.698256504e-08
-1.595451674e-09
2.793452322e-08
-1.257455786e-09
2.863179338e-08
-8.941866988e-10
2.906299406e-08
-5.126360735e-10
2.922163138e-08
-1.211102478e-10
2.910837403e-08
2.688967156e-10
2.873152375e-08
6.465880902e-10
2.810530951e-08
1.003524276e-09
2.724880868e-08
1.332755689e-09
2.618502235e-08
1.628633389e-09
2.493975763e-08
1.886922172e-09
2.354152269e-08
2.104474166e-09
2.201932271e-08
2.279676093e-09
2.040281628e-08
2.411833086e-09
1.872126675e-08
2.501507237e-09
1.70028713e-08
2.550231307e-09
1.527422815e-08
2.560350778e-09
1.355991574e-08
2.534831416e-09
1.188223992e-08
2.477048369e-09
1.026112001e-08
2.390560276e-09
8.714112724e-09
2.278909655e-09
7.256532218e-09
2.1454733e-09
5.901608649e-09
1.993391037e-09
4.660614029e-09
1.825614014e-09
3.542857341e-09
1.645058716e-09
2.555517194e-09
1.454889786e-09
1.703243717e-09
1.259118435e-09
9.873694844e-10
1.062662114e-09
4.060669037e-10
8.697082407e-10
-4.467824738e-11
6.832961755e-10
-3.714611813e-10
5.071196113e-10
-5.835763778e-10
3.450667102e-10
-6.929334697e-10
2.00890141e-10
-7.137765256e-10
7.794503916e-11
-6.622515137e-10
-2.103088205e-11
-5.559883278e-10
-9.406057307e-11
-4.131559625e-10
-1.401407348e-10
-2.520471111e-10
-1.591055949e-10
-9.048446018e-11
-1.516947472e-10
5.474471776e-11
-1.193979587e-10
1.68274525e-10
-6.428265667e-11
2.364113881e-10
1.120556717e-11
2.472590562e-10
1.044270872e-10
1.907318524e-10
2.127027308e-10
5.851070061e-11
3.334052377e-10
-1.560243566e-10
4.639837017e-10
-4.578204645e-10
6.01926873e-10
-8.501125104e-10
7.446615662e-10
-1.334285402e-09
8.894202878e-10
-1.909630854e-09
1.033098179e-09
-2.573019078e-09
1.172124359e-09
-3.31852373e-09
1.302393425e-09
-4.137050862e-09
1.419277539e-09
-5.016056461e-09
1.517727594e-09
-5.93940781e-09
1.592490644e-09
-6.88747056e-09
1.638412662e-09
-7.837467194e-09
1.650836948e-09
-8.764141316e-09
1.626048455e-09
-9.640728326e-09
1.561721098e-09
-1.044017445e-08
1.457292485e-09
-1.11365126e-08
1.314186881e-09
-1.170631236e-08
1.135873669e-09
-1.212989571e-08
9.277504556e-10
-1.23924963e-08
6.968011472e-10
-1.24852766e-08
4.51526372e-10
-1.240614422e-08
2.01681767e-10
-1.21597838e-08
-4.281545604e-11
-1.175671239e-08
-2.733481966e-10
-1.121211295e-08
-4.831090498e-10
-1.054451569e-08
-6.671174496e-10
-9.775281651e-09
-8.211857566e-10
-8.928313973e-09
-9.418113681e-10
-8.028870836e-09
-1.027105112e-09
-7.102404023e-09
-1.0768199e-09
-6.173405585e-09
-1.092248411e-09
-5.264471027e-09
-1.0760273e-09
-4.395537257e-09
-1.031897157e-09
-3.58331107e-09
-9.644267114e-10
-2.840907037e-09
-8.787155564e-10
-2.177680961e-09
-7.800818888e-10
-1.599273345e-09
-6.73778815e-10
-1.107823716e-09
-5.647390157e-10
-7.023393408e-10
-4.573662861e-10
-3.791537123e-10
-3.553812376e-10
-1.324741148e-10
-2.617211541e-10
4.505514864e-11
-1.785025894e-10
1.617895163e-10
-1.070377073e-10
2.265575331e-10
-4.790738536e-11
2.482210438e-10
-1.061776717e-12
2.353365025e-10
3.402313711e-11
1.959083491e-10
5.820531603e-11
1.372344551e-10
7.255982555e-11
6.580930103e-11
7.828651726e-11
-1.271013416e-11
7.663784191e-11
-9.35140859e-11
6.885526776e-11
-1.726016959e-10
5.612778553e-11
-2.467295896e-10
3.955416573e-11
-3.133324534e-10
2.011427059e-11
-3.704208261e-10
-1.361619005e-12
-4.164658472e-10
-2.422489347e-11
-4.50250918e-10
-4.804401927e-11
-4.707023422e-10
-7.264221924e-11
-4.76706319e-10
-9.811968968e-11
-4.669581988e-10
-1.248149087e-10
-4.399377703e-10
-1.531314649e-10
-3.941610129e-10
-1.831329316e-10
-3.289345995e-10
-2.137921058e-10
-2.458560839e-10
-2.418225289e-10
-1.512649969e-10
-2.601052918e-10
-5.946253274e-11
-2.561960459e-10
3.6669879e-12
-2.112058914e-10
-1.002272197e-10
-2.132385508e-10
4.626021743e-10
-5.772311825e-10
8.543672414e-10
-9.459935615e-10
9.112963121e-10
-1.238923384e-09
7.806237775e-10
-1.412157972e-09
5.536803808e-10
-1.440893985e-09
2.764042328e-10
-1.308566796e-09
-3.243974995e-11
-1.001487853e-09
-3.672791548e-10
-5.068224864e-10
-7.275420219e-10
1.879521851e-10
-1.113565316e-09
1.09467595e-09
-1.52473891e-09
2.22357647e-09
-1.958517738e-09
3.582230106e-09
-2.410178746e-09
5.174531754e-09
-2.872762418e-09
6.999693077e-09
-3.337145885e-09
9.051313821e-09
-3.792185789e-09
1.131660025e-08
-4.224975321e-09
1.377576755e-08
-4.621240417e-09
1.640173305e-08
-4.965900207e-09
1.916014286e-08
-5.243799348e-09
2.200981982e-08
-5.440575863e-09
2.49036443e-08
-5.543602887e-09
2.778986257e-08
-5.542912286e-09
3.061375875e-08
-5.431985484e-09
3.331957609e-08
-5.208314715e-09
3.585254164e-08
-4.873650594e-09
3.816083592e-08
-4.433908215e-09
4.019736391e-08
-3.898743949e-09
4.192120764e-08
-3.280856492e-09
4.329868776e-08
-2.595083356e-09
4.430398706e-08
-1.857561384e-09
4.492073846e-08
-1.084673643e-09
4.513971533e-08
-2.918599084e-10
4.495932366e-08
5.017345377e-10
4.438846736e-08
1.274754769e-09
4.34445275e-08
2.010169252e-09
4.215215536e-08
2.693622437e-09
4.054213623e-08
3.313141312e-09
3.864989669e-08
3.859312302e-09
3.651569213e-08
4.324972151e-09
3.418120865e-08
4.705758813e-09
3.168998905e-08
4.999251911e-09
2.908584178e-08
5.205535513e-09
2.641178966e-08
5.326752767e-09
2.370914389e-08
5.366840925e-09
2.10167247e-08
5.331201466e-09
1.837026396e-08
5.226301986e-09
1.580202095e-08
5.059252912e-09
1.334059182e-08
4.837398888e-09
1.101088385e-08
4.567993188e-09
8.834204289e-09
4.258005406e-09
6.828375014e-09
3.914115883e-09
5.007775686e-09
3.542939054e-09
3.383293258e-09
3.15136856e-09
1.962295279e-09
2.747154331e-09
7.474421768e-10
2.340117033e-09
-2.646467667e-10
1.940628706e-09
-1.081613762e-09
1.556114822e-09
-1.714936579e-09
1.194187137e-09
-2.180083392e-09
8.627820036e-10
-2.496322576e-09
5.694838203e-10
-2.686261691e-09
3.209944324e-10
-2.775148717e-09
1.226847088e-10
-2.790214155e-09
-2.171380214e-11
-2.759196169e-09
-1.104870024e-10
-2.709713817e-09
-1.43751829e-10
-2.66823358e-09
-1.235532737e-10
-2.659188836e-09
-5.355158685e-11
-2.704308905e-09
6.133445737e-11
-2.822180279e-09
2.153318785e-10
-3.02799895e-09
4.022325254e-10
-3.333533284e-09
6.157392089e-10
-3.747220365e-09
8.497226656e-10
-4.274348525e-09
1.098346013e-09
-4.91726814e-09
1.356057489e-09
-5.675551067e-09
1.617467976e-09
-6.546065661e-09
1.877131133e-09
-7.52293525e-09
2.129276855e-09
-8.59736622e-09
2.367552237e-09
-9.757381174e-09
2.584834743e-09
-1.098751456e-08
2.773174223e-09
-1.226853679e-08
2.923909853e-09
-1.357732154e-08
3.027984689e-09
-1.48869149e-08
3.076455589e-09
-1.616691605e-08
3.061179019e-09
-1.738421667e-08
2.97563453e-09
-1.850414167e-08
2.815772541e-09
-1.949193321e-08
2.580775626e-09
-2.031448214e-08
2.273529789e-09
-2.094217266e-08
1.900791201e-09
-2.13504968e-08
1.472996088e-09
-2.152153682e-08
1.003636858e-09
-2.14454146e-08
5.091911944e-10
-2.112149692e-08
8.683490209e-12
-2.055842945e-08
-4.786365338e-10
-1.977147425e-08
-9.374461153e-10
-1.878092669e-08
-1.355794776e-09
-1.761339725e-08
-1.722262363e-09
-1.630079363e-08
-2.027241992e-09
-1.487810044e-08
-2.26404018e-09
-1.338197535e-08
-2.428981889e-09
-1.184931614e-08
-2.521487154e-09
-1.031583298e-08
-2.54395017e-09
-8.814755669e-09
-2.501429306e-09
-7.375729543e-09
-2.401201225e-09
-6.023970514e-09
-2.252237366e-09
-4.779686093e-09
-2.064624134e-09
-3.657787321e-09
-1.848979811e-09
-2.667868311e-09
-1.61589073e-09
-1.814424593e-09
-1.37540639e-09
-1.097294198e-09
-1.136623625e-09
-5.122439681e-10
-9.0735927e-10
-5.168878476e-11
-6.939451583e-10
2.945610321e-10
-5.011276736e-10
5.385245559e-10
-3.320783668e-10
6.932966165e-10
-1.884640474e-10
7.723455582e-10
-7.062189599e-11
7.889078932e-10
2.220412181e-11
7.555719651e-10
9.153548791e-11
6.83987667e-10
1.394029666e-10
5.846942299e-10
1.681436346e-10
4.670248324e-10
1.802436713e-10
3.390765792e-10
1.782147036e-10
2.077303941e-10
1.64496685e-10
7.871521219e-11
1.413730491e-10
-4.329653722e-11
1.109061737e-10
-1.545532318e-10
7.487711621e-11
-2.520642292e-10
3.471300841e-11
-3.333978094e-10
-8.574146707e-12
-3.964574652e-10
-5.446261223e-11
-4.392483796e-10
-1.029438165e-10
-4.596942848e-10
-1.544320413e-10
-4.556267948e-10
-2.094249641e-10
-4.251048043e-10
-2.677582123e-10
-3.673171807e-10
-3.272813054e-10
-2.842937898e-10
-3.818678354e-10
-1.835353893e-10
-4.189375255e-10
-8.131578474e-11
-4.172761465e-10
-5.827742001e-12
-3.46080315e-10
-1.657206405e-10
-2.04563786e-10
6.584547386e-10
-5.413410389e-10
1.182977608e-09
-8.583261803e-10
1.221262868e-09
-1.070506082e-09
9.87531118e-10
-1.130454421e-09
6.106634418e-10
-1.009865486e-09
1.556427612e-10
-6.889003056e-10
-3.503787641e-10
-1.510238082e-10
-8.986287355e-10
6.193197089e-10
-1.487649196e-09
1.637203398e-09
-2.117401968e-09
2.916526218e-09
-2.786203397e-09
4.469029873e-09
-3.489459225e-09
6.303133448e-09
-4.219219292e-09
8.422715239e-09
-4.964089052e-09
1.082594785e-08
-5.709319153e-09
1.350419184e-08
-6.437038608e-09
1.644105942e-08
-7.126649861e-09
1.961169497e-08
-7.755455919e-09
2.298238568e-08
-8.299534926e-09
2.651058072e-08
-8.734886078e-09
3.014540698e-08
-9.038789222e-09
3.382871997e-08
-9.191280252e-09
3.749668255e-08
-9.176599123e-09
4.10817898e-08
-8.984441649e-09
4.4515209e-08
-8.610825428e-09
4.77292408e-08
-8.058474667e-09
5.065971244e-08
-7.336659398e-09
5.324812928e-08
-6.460541588e-09
5.544345794e-08
-5.45011546e-09
5.720348738e-08
-4.328892015e-09
5.84956616e-08
-3.122534141e-09
5.92977528e-08
-1.857665464e-09
5.959701678e-08
-5.591497542e-10
5.939070424e-08
7.43874752e-10
5.868694939e-08
2.019131701e-09
5.750414614e-08
3.239241045e-09
5.586984034e-08
4.380549466e-09
5.381956004e-08
5.422913814e-09
5.139504816e-08
6.349914512e-09
4.864513626e-08
7.148669192e-09
4.562107715e-08
7.810510179e-09
4.237747962e-08
8.329883392e-09
3.897026774e-08
8.705273356e-09
3.545530362e-08
8.93863163e-09
3.188708524e-08
9.035062119e-09
2.831756688e-08
9.002385451e-09
2.47951561e-08
8.85056514e-09
2.136394309e-08
8.591061739e-09
1.80631897e-08
8.236168693e-09
1.492705389e-08
7.798432013e-09
1.198452745e-08
7.29023059e-09
9.259511294e-09
6.723624716e-09
6.770934669e-09
6.110497878e-09
4.532800971e-09
5.462970582e-09
2.554364625e-09
4.79381283e-09
8.399785912e-10
4.117987804e-09
-6.139846631e-10
3.45405134e-09
-1.819232734e-09
2.81765697e-09
-2.792388544e-09
2.221440266e-09
-3.555124451e-09
1.678455311e-09
-4.133891271e-09
1.201090931e-09
-4.559289385e-09
8.001991111e-10
-4.865130296e-09
4.843593451e-10
-5.087605358e-09
2.593002712e-10
-5.263202829e-09
1.274252443e-10
-5.427981466e-09
8.783392935e-11
-5.616004915e-09
1.363457692e-10
-5.858137525e-09
2.659402653e-10
-6.181080016e-09
4.673454408e-10
-6.606686908e-09
7.297470246e-10
-7.151598567e-09
1.041517365e-09
-7.827158884e-09
1.390877905e-09
-8.639593082e-09
1.766415189e-09
-9.590363502e-09
2.157419327e-09
-1.067663802e-08
2.553997318e-09
-1.189177969e-08
2.946986909e-09
-1.322577962e-08
3.327680578e-09
-1.466556701e-08
3.687428093e-09
-1.619514824e-08
4.01718756e-09
-1.779558185e-08
4.307129461e-09
-1.944482335e-08
4.546414926e-09
-2.111751293e-08
4.723217642e-09
-2.278481969e-08
4.825059519e-09
-2.441442476e-08
4.839450505e-09
-2.597077205e-08
4.754844823e-09
-2.741571713e-08
4.561881142e-09
-2.870964064e-08
4.254740123e-09
-2.981305914e-08
3.832426587e-09
-3.06885753e-08
3.29963964e-09
-3.13030189e-08
2.667086271e-09
-3.162931615e-08
1.951227437e-09
-3.164821383e-08
1.173344605e-09
-3.135023448e-08
3.596389892e-10
-3.073743152e-08
-4.592591848e-10
-2.982092661e-08
-1.25489724e-09
-2.861906606e-08
-2.00457386e-09
-2.715892112e-08
-2.687435529e-09
-2.54751765e-08
-3.284272677e-09
-2.360792036e-08
-3.779907214e-09
-2.160107892e-08
-4.163654437e-09
-1.950072724e-08
-4.429560622e-09
-1.735334571e-08
-4.576523222e-09
-1.520413278e-08
-4.608123769e-09
-1.309544551e-08
-4.532189502e-09
-1.106545166e-08
-4.360130496e-09
-9.147067188e-09
-4.106133164e-09
-7.367211649e-09
-3.786262534e-09
-5.746387734e-09
-3.417545515e-09
-4.298582457e-09
-3.01709852e-09
-3.031451415e-09
-2.601326239e-09
-1.946749136e-09
-2.185256014e-09
-1.040964718e-09
-1.782012862e-09
-3.061012279e-10
-1.402459579e-09
2.694570178e-10
-1.054998629e-09
7.000167278e-10
-7.455394688e-10
1.001705177e-09
-4.775988979e-10
1.191643111e-09
-2.525285115e-10
1.287122138e-09
-6.976252026e-11
1.304865495e-09
7.279099996e-11
1.260566831e-09
1.781986627e-10
1.168614957e-09
2.50116606e-10
1.041939287e-09
2.925151945e-10
8.91940426e-10
3.094663517e-10
7.284818003e-10
3.049699415e-10
5.599515759e-10
2.828244543e-10
3.933576911e-10
2.465014707e-10
2.34467022e-10
1.990429288e-10
8.800373744e-11
1.429551065e-10
-4.213804502e-11
8.009077234e-11
-1.526259772e-10
1.155481693e-11
-2.404348813e-10
-6.233365619e-11
-3.026302641e-10
-1.418839663e-10
-3.363401704e-10
-2.275295567e-10
-3.390797302e-10
-3.187222362e-10
-3.096315028e-10
-4.120433679e-10
-2.497116906e-10
-4.984385137e-10
-1.664905504e-10
-5.598737823e-10
-7.580658276e-11
-5.664717251e-10
-5.53285975e-12
-4.753999125e-10
-2.305842942e-10
-1.846661369e-10
8.374564669e-10
-4.742788676e-10
1.467475865e-09
-7.177360798e-10
1.460807e-09
-8.287498504e-10
1.096485846e-09
-7.581336722e-10
5.40449651e-10
-4.75475986e-10
-1.236281568e-10
4.125007429e-11
-8.603170034e-10
8.109699939e-10
-1.657855377e-09
1.851719649e-09
-2.514017939e-09
3.180781052e-09
-3.428132199e-09
4.81401352e-09
-4.397215321e-09
6.764749748e-09
-5.414266825e-09
9.042496423e-09
-6.467626807e-09
1.165156386e-08
-7.540822054e-09
1.458971819e-08
-8.612661463e-09
1.784689488e-08
-9.657536254e-09
2.140406347e-08
-1.064596216e-08
2.52323459e-08
-1.154544258e-08
2.929248258e-08
-1.232170512e-08
3.353478841e-08
-1.29403204e-08
3.789969572e-08
-1.336864566e-08
4.231895306e-08
-1.357795824e-08
4.671747418e-08
-1.354556082e-08
5.101577395e-08
-1.325659745e-08
5.513277226e-08
-1.270532258e-08
5.898875791e-08
-1.189562514e-08
6.250823299e-08
-1.084077607e-08
6.562244335e-08
-9.562457745e-09
6.827144451e-08
-8.089257147e-09
7.040563391e-08
-6.454820484e-09
7.198668201e-08
-4.695906381e-09
7.298788055e-08
-2.850612121e-09
7.339353398e-08
-9.547119108e-10
7.319926015e-08
9.513899771e-10
7.241222429e-08
2.823862171e-09
7.105105218e-08
4.623801671e-09
6.914485918e-08
6.316938889e-09
6.673217873e-08
7.873521953e-09
6.385899566e-08
9.268581492e-09
6.058061237e-08
1.048194969e-08
5.695568719e-08
1.149911513e-08
5.304784296e-08
1.230986046e-08
4.892329433e-08
1.290970421e-08
4.464922662e-08
1.329928855e-08
4.029215636e-08
1.348409165e-08
3.591634398e-08
1.347396612e-08
3.158235073e-08
1.328244693e-08
2.734580244e-08
1.292588958e-08
2.325646641e-08
1.242253037e-08
1.935762263e-08
1.179156011e-08
1.568579092e-08
1.105238783e-08
1.227069393e-08
1.022418017e-08
9.135424928e-09
9.32580689e-09
6.296640828e-09
8.376183537e-09
3.764702199e-09
7.394730644e-09
1.544549801e-09
6.402137961e-09
-3.659901566e-10
5.42433823e-09
-1.981092701e-09
4.489183029e-09
-3.322991363e-09
3.617512956e-09
-4.419715908e-09
2.828261961e-09
-5.304850987e-09
2.139406428e-09
-6.016809201e-09
1.566617568e-09
-6.597714894e-09
1.122158616e-09
-7.092338508e-09
8.139620252e-10
-7.545563119e-09
6.449685327e-10
-8.001376308e-09
6.129422184e-10
-8.500830038e-09
7.105968733e-10
-9.080450799e-09
9.261819991e-10
-9.770931942e-09
1.244374039e-09
-1.0596199e-08
1.647367437e-09
-1.157290009e-08
2.116038675e-09
-1.271031724e-08
2.631052992e-09
-1.40106626e-08
3.17379348e-09
-1.546970587e-08
3.727041232e-09
-1.707761468e-08
4.275339833e-09
-1.881991789e-08
4.805020948e-09
-2.067844041e-08
5.303914537e-09
-2.263210393e-08
5.760781083e-09
-2.465747977e-08
6.164572812e-09
-2.672904093e-08
6.503687521e-09
-2.881914413e-08
6.765397292e-09
-3.089778847e-08
6.935619322e-09
-3.293229629e-08
6.999120738e-09
-3.488699749e-08
6.940176185e-09
-3.672310695e-08
6.74373993e-09
-3.839905363e-08
6.397194816e-09
-3.987143377e-08
5.892394392e-09
-4.109671749e-08
5.227766639e-09
-4.203352432e-08
4.409802164e-09
-4.264519855e-08
3.453582276e-09
-4.290183779e-08
2.382455652e-09
-4.278241252e-08
1.226594675e-09
-4.227743513e-08
2.373200354e-11
-4.139009255e-08
-1.182628768e-09
-4.013341232e-08
-2.353944143e-09
-3.853005142e-08
-3.457613148e-09
-3.661356072e-08
-4.461635536e-09
-3.442510979e-08
-5.338952806e-09
-3.201207735e-08
-6.067977118e-09
-2.942640676e-08
-6.633283666e-09
-2.672270521e-08
-7.026118424e-09
-2.395626305e-08
-7.244584369e-09
-2.118110197e-08
-7.293438232e-09
-1.844817113e-08
-7.183511676e-09
-1.580378002e-08
-6.930799999e-09
-1.328835411e-08
-6.555339382e-09
-1.093554254e-08
-6.079945896e-09
-8.771699584e-09
-5.52893701e-09
-6.815704411e-09
-4.926903919e-09
-5.079108854e-09
-4.297604324e-09
-3.566539843e-09
-3.663020383e-09
-2.276327609e-09
-3.042613274e-09
-1.201301136e-09
-2.452796739e-09
-3.297031684e-10
-1.906615698e-09
3.538315596e-10
-1.413636607e-09
8.672773323e-10
-9.800325916e-10
1.230240069e-09
-6.088314391e-10
1.463154697e-09
-3.003246855e-10
1.586423742e-09
-5.240740731e-11
1.619530343e-09
1.388968961e-10
1.580560064e-09
2.786505913e-10
1.485961488e-09
3.724715988e-10
1.350427532e-09
4.262031759e-10
1.186873712e-09
4.456606925e-10
1.006460668e-09
4.364194011e-10
8.186914992e-10
4.03640497e-10
6.315492432e-10
3.519142523e-10
4.516935434e-10
2.850996261e-10
2.846939198e-10
2.061612594e-10
1.353062775e-10
1.170353552e-10
7.761111789e-12
1.858618694e-11
-9.401277577e-11
-8.91899633e-11
-1.663072912e-10
-2.064960461e-10
-2.05903638e-10
-3.322944065e-10
-2.108811311e-10
-4.618641793e-10
-1.821619463e-10
-5.833141036e-10
-1.258805288e-10
-6.733942292e-10
-5.650311563e-11
-6.939024227e-10
-3.55884283e-13
-5.90145304e-10
-2.898299082e-10
-1.62852408e-10
9.984624334e-10
-4.017938589e-10
1.70512619e-09
-5.675463122e-10
1.626526204e-09
-5.734057828e-10
1.104286954e-09
-3.691413209e-10
3.407682177e-10
7.713361669e-11
-5.621172921e-10
7.89282076e-10
-1.561038258e-09
1.788432263e-09
-2.64164476e-09
3.094837233e-09
-3.80097028e-09
4.727991052e-09
-5.037731612e-09
6.705865002e-09
-6.347562254e-09
9.043679841e-09
-7.720856145e-09
1.175247082e-08
-9.141901533e-09
1.483754217e-08
-1.058863266e-08
1.829691404e-08
-1.203269671e-08
2.211980764e-08
-1.343979336e-08
2.62852597e-08
-1.477035082e-08
3.076099911e-08
-1.59806289e-08
3.550270407e-08
-1.702434751e-08
4.045382253e-08
-1.785484906e-08
4.554609259e-08
-1.84277473e-08
5.070088933e-08
-1.870387607e-08
5.583140681e-08
-1.865223798e-08
6.084559972e-08
-1.82525668e-08
6.564961953e-08
-1.749710323e-08
7.015140617e-08
-1.63912872e-08
7.426410005e-08
-1.495331713e-08
7.790897854e-08
-1.321273658e-08
8.101778215e-08
-1.120831099e-08
8.353433788e-08
-8.985512039e-09
8.541548192e-08
-6.593855289e-09
8.663124414e-08
-4.084433032e-09
8.716440654e-08
-1.505607537e-09
8.700952506e-08
1.090542571e-09
8.617275033e-08
3.648634573e-09
8.467280045e-08
6.117162995e-09
8.253987813e-08
8.45027893e-09
7.981464451e-08
1.060760294e-08
7.654608847e-08
1.255438745e-08
7.279457238e-08
1.426184121e-08
6.862464979e-08
1.570821699e-08
6.410739908e-08
1.687711199e-08
5.93179085e-08
1.775958348e-08
5.433348383e-08
1.83536092e-08
4.923175002e-08
1.866395172e-08
4.408868715e-08
1.870176385e-08
3.897672951e-08
1.848388361e-08
3.396302225e-08
1.803182645e-08
2.910797117e-08
1.737056117e-08
2.446418635e-08
1.652720573e-08
2.007585896e-08
1.552982539e-08
1.597856619e-08
1.440653393e-08
1.219942563e-08
1.318506365e-08
8.757457774e-09
1.189285798e-08
5.66385919e-09
1.055758424e-08
2.922308766e-09
9.207849568e-09
5.312014394e-10
7.875210551e-09
-1.522018907e-09
6.598739787e-09
-3.264950187e-09
5.414516624e-09
-4.732395113e-09
4.348788484e-09
-5.965270653e-09
3.425702473e-09
-7.009835203e-09
2.666252668e-09
-7.916472296e-09
2.086769924e-09
-8.73839552e-09
1.697548045e-09
-9.528745848e-09
1.501847989e-09
-1.033917307e-08
1.495451038e-09
-1.121731739e-08
1.666839164e-09
-1.220475821e-08
1.997962303e-09
-1.333532598e-08
2.465486174e-09
-1.463388539e-08
3.042394046e-09
-1.611569254e-08
3.699732319e-09
-1.778634831e-08
4.408335558e-09
-1.96423075e-08
5.140359192e-09
-2.167190226e-08
5.870486027e-09
-2.385674102e-08
6.576688839e-09
-2.617331802e-08
7.240490179e-09
-2.859466362e-08
7.846661962e-09
-3.10917915e-08
8.382423418e-09
-3.363475043e-08
8.836226256e-09
-3.619315174e-08
9.196384511e-09
-3.873614686e-08
9.449879353e-09
-4.123194782e-08
9.581604996e-09
-4.364702681e-08
9.57424148e-09
-4.594511583e-08
9.408748608e-09
-4.808627313e-08
9.065674506e-09
-5.002657541e-08
8.527653634e-09
-5.171875991e-08
7.782484762e-09
-5.311418046e-08
6.826664919e-09
-5.416571697e-08
5.667869468e-09
-5.48313059e-08
4.325735651e-09
-5.507600465e-08
2.831556041e-09
-5.487481167e-08
1.225641848e-09
-5.421676055e-08
-4.404082845e-10
-5.310312142e-08
-2.110324261e-09
-5.154908476e-08
-3.731192747e-09
-4.958273899e-08
-5.257120766e-09
-4.724210885e-08
-6.645850374e-09
-4.457418205e-08
-7.861093413e-09
-4.163333441e-08
-8.873674638e-09
-3.847942817e-08
-9.662536079e-09
-3.517566776e-08
-1.021547761e-08
-3.178631864e-08
-1.052947198e-08
-2.837444836e-08
-1.061042757e-08
-2.499982961e-08
-1.047243237e-08
-2.171713742e-08
-1.013654931e-08
-1.857452078e-08
-9.62931982e-09
-1.561259202e-08
-8.981080071e-09
-1.286383065e-08
-8.224265369e-09
-1.035237879e-08
-7.391803453e-09
-8.094168893e-09
-6.515668887e-09
-6.097329852e-09
-5.625668163e-09
-4.362813643e-09
-4.748475334e-09
-2.885187253e-09
-3.9069325e-09
-1.653549185e-09
-3.119604438e-09
-6.525354831e-10
-2.400582578e-09
1.366486719e-10
-1.759528965e-09
7.351829649e-10
-1.201914276e-09
1.165604282e-09
-7.294282927e-10
1.451046199e-09
-3.406075427e-10
1.614421573e-09
-3.127466866e-11
1.677398189e-09
2.048626715e-10
1.659903798e-09
3.751687566e-10
1.579938848e-09
4.874233806e-10
1.453512992e-09
5.494527211e-10
1.294647618e-09
5.688420002e-10
1.115460951e-09
5.526924366e-10
9.262940977e-10
5.073965016e-10
7.35904805e-10
4.384260053e-10
5.517086568e-10
3.501169059e-10
3.800576126e-10
2.454861349e-10
2.265487993e-10
1.261784408e-10
9.627478525e-11
-7.296571345e-12
-6.061790902e-12
-1.547392551e-10
-7.63325483e-11
-3.145312438e-10
-1.116948771e-10
-4.806651523e-10
-1.120126167e-10
-6.385429653e-10
-8.20922917e-11
-7.599682632e-10
-3.469841278e-11
-7.987835356e-10
5.906476779e-12
-6.887975957e-10
-3.422716383e-10
-1.42237106e-10
1.143449946e-09
-3.327920723e-10
1.898984179e-09
-4.228582683e-10
1.721210672e-09
-3.24980909e-10
1.0131365e-09
1.218926259e-11
1.316719588e-11
6.21915728e-10
-1.15882465e-09
1.529770601e-09
-2.451971151e-09
2.758879859e-09
-3.849640345e-09
4.331658412e-09
-5.348325506e-09
6.26989374e-09
-6.946282559e-09
8.593884333e-09
-8.63782343e-09
1.132109478e-08
-1.041067033e-08
1.446456014e-08
-1.224484393e-08
1.80311501e-08
-1.41122677e-08
2.201977483e-08
-1.597676806e-08
2.641958368e-08
-1.77944177e-08
3.120827205e-08
-1.951430057e-08
3.635062114e-08
-2.107984952e-08
4.17974524e-08
-2.243087867e-08
4.748520777e-08
-2.350636609e-08
5.33363758e-08
-2.424795138e-08
5.926097068e-08
-2.460390998e-08
6.515911985e-08
-2.453322432e-08
7.092468107e-08
-2.400917152e-08
7.644954671e-08
-2.302177628e-08
8.162810467e-08
-2.157868701e-08
8.636136903e-08
-1.9704398e-08
9.056039887e-08
-1.743815219e-08
9.414883998e-08
-1.483095419e-08
9.706456676e-08
-1.194216155e-08
9.926043016e-08
-8.835954119e-09
1.007042687e-07
-5.578138628e-09
1.013794896e-07
-2.232420179e-09
1.012806906e-07
1.138097011e-09
1.004130858e-07
4.467499683e-09
9.879592075e-08
7.690278908e-09
9.646054202e-08
1.074842413e-08
9.344937675e-08
1.359034044e-08
8.981372362e-08
1.617061193e-08
8.561802304e-08
1.845076286e-08
8.093164087e-08
2.040063196e-08
7.58318343e-08
2.199625338e-08
7.040138017e-08
2.322264717e-08
6.472669517e-08
2.407361901e-08
5.889575422e-08
2.455184559e-08
5.299584094e-08
2.466869917e-08
4.711120802e-08
2.444366921e-08
4.132078619e-08
2.390332718e-08
3.56961361e-08
2.307989704e-08
3.029980612e-08