/*--------------------------------*- C++ -*----------------------------------*\
| =========                 |                                                 |
| \\      /  F ield         | OpenFOAM: The Open Source CFD Toolbox           |
|  \\    /   O peration     | Version:  2412                                  |
|   \\  /    A nd           | Website:  www.openfoam.com                      |
|    \\/     M anipulation  |                                                 |
\*---------------------------------------------------------------------------*/
FoamFile
{
    version     2.0;
    format      ascii;
    arch        "LSB;label=32;scalar=64";
    class       volScalarField;
    location    "0.1";
    object      T;
}
// * * * * * * * * * * * * * * * * * * * * * * * * * * * * * * * * * * * * * //

dimensions      [0 0 0 1 0 0 0];

internalField   nonuniform List<scalar> 
12008
(
310.218849
310.2526623
310.3197288
310.4201797
310.5537655
310.7201604
310.9189626
311.1496822
311.4117218
311.7043529
312.0266931
312.3776825
312.7560656
313.1603764
313.5889263
314.0397957
314.510829
314.9996316
315.50357
316.0197728
316.5451327
317.0763086
317.609727
318.1415834
318.6678433
319.1842442
319.6863008
320.1693148
320.6283933
321.0584801
321.4544038
321.8109307
322.1228568
322.3851225
322.5929454
322.7419786
322.8284937
322.8495896
322.8041912
322.6896497
322.5060532
322.2554761
321.9409939
321.5670221
321.1392486
320.6644964
320.1505298
319.6058179
319.0392747
318.4599937
317.8769953
317.2990026
316.7342555
316.1903718
315.6742562
315.1920561
314.7491594
314.3502224
313.999222
313.6995197
313.4539298
313.2647823
313.1339705
313.0630874
313.0527729
313.1036759
313.2159383
313.3890998
313.6220345
313.9128491
314.2587833
314.6561223
315.1001369
315.5850621
316.1041287
316.6496525
317.2131847
317.7857185
318.3579392
318.9205009
319.464308
319.98078
320.4620797
320.9012899
321.2925321
321.6310262
321.9130968
322.1361378
322.2985432
322.3993701
322.4389764
322.4193321
322.3414071
322.2072394
322.0193881
321.78084
321.4949406
321.1653294
320.7958798
320.3906445
319.9538075
319.4896356
319.0024426
318.4965566
317.9762868
317.4458932
316.9095566
316.3713481
315.8351971
315.3048576
314.7838707
314.2755281
313.7828359
313.3084785
312.8547877
312.4237166
312.0168228
311.6352594
311.279778
310.9507401
310.6481394
310.3716328
310.1205772
309.894073
309.6910095
309.5101124
309.3499899
309.2091773
309.0861787
308.9795034
308.8876988
308.8093782
308.7432438
308.6881054
308.6428948
308.6066777
308.578662
308.5582051
308.5448201
308.5381885
310.2477949
310.2821979
310.3505199
310.4528404
310.5888789
310.7582745
310.9605905
311.1953034
311.4617815
311.7592605
312.0868188
312.4433555
312.8275724
313.237958
313.6727774
314.1300654
314.6076237
315.1030198
315.6135895
316.1364395
316.6684511
317.206283
317.7463735
318.2849402
318.8179794
319.3412652
319.8503494
320.3405659
320.807042
321.2447205
321.6483949
322.0127773
322.3325762
322.6025986
322.8178843
322.973863
323.0665334
323.0926508
323.0517511
322.9401163
322.7571232
322.505295
322.1875561
321.8082923
321.373265
320.8894667
320.3649148
319.8083982
319.2291942
318.6367792
318.0405515
317.4495858
316.8724313
316.3169626
315.7902845
315.2986903
314.847665
314.441924
314.0854751
313.7816926
313.5333946
313.3429111
313.2121362
313.1428264
313.1353157
313.1904036
313.3082304
313.4883037
313.7294422
314.0296668
314.3860945
314.7948479
315.2509946
315.7485307
316.2804205
316.8387004
317.4146458
317.9989963
318.5822233
319.1548203
319.7075913
320.2319146
320.7199621
321.1648611
321.5607949
321.9030442
322.1879797
322.4130195
322.5765661
322.6773643
322.7158543
322.6945206
322.6138346
322.4758357
322.2831022
322.0386651
321.7459411
321.4086645
321.03082
320.6165832
320.1702629
319.6962557
319.1989986
318.6829292
318.1524519
317.6119065
317.0655386
316.5174697
315.9716678
315.4319149
314.9017753
314.3845603
313.8832927
313.4006732
312.9390503
312.5003948
312.0862819
311.6978823
311.335963
311.0008987
310.6926926
310.4110063
310.1551972
309.9243605
309.7173762
309.5329557
309.3696897
309.2260931
309.1006472
308.9918375
308.8981873
308.8182862
308.7508132
308.6945565
308.6484283
308.6114762
308.5828932
308.5620229
308.5483595
308.5415349
310.3054868
310.3411384
310.4119631
310.5180181
310.6589733
310.8344146
311.0438552
311.2867235
311.5623407
311.8698922
312.2084006
312.5767009
312.9734213
313.3969678
313.8455149
314.3170002
314.8091238
315.3193514
315.8449196
316.3828432
316.9299225
317.4827502
318.0377153
318.5910054
319.1386053
319.6762928
320.1996349
320.7039841
321.1844802
321.6360617
322.0534904
322.4314
322.7643693
323.047023
323.2741523
323.4408681
323.5427852
323.5762244
323.5410026
323.4328602
323.2493623
322.9937376
322.6687019
322.2785882
321.8292697
321.3280144
320.7832645
320.2043554
319.6011966
318.983939
318.3626544
317.7470515
317.1462441
316.5685824
316.0215503
315.5117252
315.0447933
314.6256041
314.258251
313.9461637
313.6921991
313.4987215
313.3676619
313.3010612
313.2987398
313.3618174
313.4903967
313.6839234
313.9410994
314.2597624
314.6367708
315.0679091
315.5478295
316.0700475
316.6270027
317.210191
317.8103684
318.4178117
319.02262
319.6150264
320.1856945
320.7259735
321.2280916
321.685282
322.0918427
322.443141
322.7355798
322.9665423
323.1343331
323.2370953
323.2753591
323.2522479
323.1674397
323.0228888
322.821168
322.565379
322.2590815
321.9062147
321.511019
321.0779584
320.6116488
320.1167942
319.5981288
319.0603663
318.5081566
317.9460496
317.3784623
316.8096506
316.2436818
315.6844086
315.1354419
314.6001226
314.0814926
313.5822663
313.1048038
312.651088
312.2227074
311.8208464
311.4462854
311.0994099
310.7802299
310.4884082
310.2232963
309.9839765
309.7693081
309.5779748
309.4085332
309.2594591
309.1291911
309.0161697
308.9188722
308.8358425
308.765716
308.7072393
308.6592862
308.6208707
308.5911566
308.5694654
308.5552757
308.5481792
310.3927599
310.4303197
310.5049781
310.6167627
310.7652782
310.9500448
311.1705165
311.4260684
311.7159684
312.0393436
312.3951468
312.7821283
313.1988124
313.6434811
314.1141643
314.6086365
315.1244184
315.6587851
316.2087767
316.7712128
317.3427074
317.9196826
318.49838
319.0748677
319.6450416
320.2046218
320.7491449
321.2739534
321.7741873
322.2447811
322.6804735
323.0758373
323.4253365
323.7234174
323.9646221
324.1437311
324.2559523
324.2971533
324.2671108
324.1616528
323.9756559
323.7131804
323.3766693
322.9703573
322.5002229
321.9738532
321.4002147
320.7893429
320.1519777
319.4991742
318.8419242
318.1908169
317.5557629
316.9457962
316.3689579
315.8322562
315.3416944
314.9023482
314.5184705
314.1936079
313.9307111
313.7322275
313.6002168
313.5369539
313.5417932
313.6162099
313.7602433
313.9732354
314.2536968
314.5991721
315.0061154
315.4697931
315.9842364
316.5422586
317.1355517
317.7548668
318.3902699
319.0314558
319.6680899
320.2901419
320.8881785
321.4535874
321.9787189
322.4569466
322.8826634
323.2512348
323.5589367
323.8028999
323.9810743
324.0906933
324.1318988
324.1088354
324.0199229
323.8669399
323.6524377
323.379649
323.0523988
322.6750049
322.2521731
321.788892
321.2903333
320.7617612
320.2084514
319.6356209
319.0483698
318.4516328
317.850142
317.248397
316.6506424
316.0608483
315.4826939
314.9195507
314.374465
313.8501399
313.348917
312.872759
312.4232369
312.001521
311.6083807
311.2441918
310.9089535
310.6023146
310.323607
310.0718862
309.845977
309.6445206
309.466024
309.3089069
309.1715472
309.0523215
308.9496424
308.8619892
308.7879348
308.7261668
308.6755044
308.6349125
308.6035125
308.5805905
308.5655976
308.5581005
310.5104197
310.5506074
310.6305454
310.7502225
310.9091616
311.1068044
311.3425373
311.615676
311.9254292
312.2708556
312.6508216
313.0639659
313.5086704
313.9830405
314.4848946
315.0117614
315.5608865
316.1292457
316.7135649
317.3103451
317.9158888
318.5263261
319.1376374
319.7456696
320.3461446
320.9346583
321.506671
322.0574908
322.5822537
323.0759056
323.5331927
323.9486694
324.3167329
324.6317003
324.8879087
325.0798423
325.2023197
325.2507528
325.2247334
325.1205856
324.929908
324.6576167
324.3057914
323.8784841
323.38172
322.8233889
322.2130171
321.5614323
320.8803509
320.1819238
319.4782849
318.7811407
318.1014346
317.4491057
316.8329494
316.2605739
315.7384396
315.2719606
314.8656407
314.5232186
314.2478021
314.0419756
313.9080641
313.8483243
313.8619887
313.9507188
314.1144893
314.3524782
314.6629119
315.0429162
315.4883839
315.9938846
316.5526371
317.1565658
317.796452
318.4621807
319.1430673
319.828232
320.5069796
321.1691381
321.8053161
322.407056
322.9668815
323.4782584
323.9355069
324.333703
324.6686084
324.9366504
325.1349624
325.2595982
325.3090328
325.2895087
325.1974134
325.034318
324.8027936
324.5063504
324.1492995
323.7366123
323.2737682
322.7666055
322.2211804
321.6436393
321.040105
320.416579
319.7788605
319.1324824
318.4826637
317.8342786
317.1918375
316.5594788
315.9409664
315.3396908
314.7586695
314.2005459
313.6675862
313.1616733
312.6843017
312.2365737
311.8191994
311.4325038
311.0764408
310.7506163
310.4543184
310.1865558
309.9461003
309.7315339
309.5412977
309.3737392
309.2271594
309.0998549
308.9901568
308.8964637
308.8172701
308.751189
308.6969711
308.653519
308.6198997
308.595354
308.5792974
308.5712715
310.659467
310.7030683
310.7898577
310.9197694
311.0922237
311.3065652
311.5620996
311.8580721
312.1936197
312.5677154
312.9791135
313.4263036
313.9074739
314.4204866
314.9628656
315.531796
316.1241357
316.7364381
317.3649844
318.0058234
318.6548149
319.3076734
319.9600065
320.6073459
321.2451646
321.8688811
322.4738493
323.0553352
323.6084853
324.1282911
324.6095573
325.0468839
325.4346728
325.7671847
326.0386194
326.2432218
326.3754591
326.4302947
326.4071148
326.3029883
326.1058081
325.8213078
325.451078
324.9988571
324.4706013
323.8744222
323.2203767
322.5201192
321.7864432
321.032758
320.2725518
319.5188931
318.7840164
318.0790198
317.4136882
316.7964374
316.23436
315.7333499
315.2982733
314.9331487
314.6413103
314.4255342
314.2884959
314.2322739
314.2561904
314.3619769
314.5494925
314.8176666
315.164325
315.5860285
316.0779425
316.6337643
317.2457345
317.9047539
318.6006138
319.3223312
320.0585587
320.7980177
321.529895
322.2441426
322.9316412
323.5842174
324.1945393
324.7559425
325.2622518
325.70766
326.086704
326.3943575
326.6262369
326.777047
326.8415114
326.8297902
326.7353069
326.559517
326.3051652
325.9763413
325.5782132
325.1168084
324.5987932
324.0312634
323.4215527
322.7770618
322.1051062
321.4127856
320.7068761
319.9937444
319.2792884
318.5689013
317.8674571
317.1793153
316.5083368
315.8579089
315.2309704
314.630036
314.0572146
313.5142228
313.0023929
312.5226778
312.075656
311.6615385
311.2801809
310.9311025
310.6135125
310.3263431
310.0682899
309.8378556
309.6333977
309.4531758
309.2953987
309.1582684
309.0400203
308.9389583
308.8534848
308.7821259
308.7235507
308.6765889
308.6402428
308.6136995
308.5963325
308.5876554
310.8410359
310.8889024
310.98424
311.1269047
311.3161835
311.5512977
311.8314492
312.1557919
312.5233682
312.9330363
313.3833993
313.8727459
314.3990037
314.9597089
315.5519921
316.1725814
316.8178221
317.4837118
318.1659501
318.8599987
319.5611478
320.2645824
320.9654428
321.6588713
322.3400428
323.0041726
323.6465052
324.2622829
324.8467003
325.3948497
325.9016645
326.3618712
326.769964
327.120232
327.4068161
327.6237905
327.7653157
327.8259119
327.8047675
327.6999599
327.4952596
327.1971419
326.8065487
326.3267245
325.7633774
325.1246895
324.4211485
323.6652051
322.8707808
322.0526758
321.2259368
320.4052539
319.6044442
318.8360653
318.1111808
317.4392746
316.8282967
316.2848037
315.8141637
315.4207789
315.1082839
314.8796959
314.7380948
314.6852667
314.7207373
314.8461984
315.0613075
315.3646294
315.7534439
316.2235812
316.7693055
317.3832801
318.0566445
318.7792207
319.5398533
320.3268548
321.1285029
321.9335124
322.7313942
323.5126346
324.2686668
324.9916575
325.6741828
326.3088972
326.8882961
327.4046497
327.8501407
328.2171881
328.4989306
328.6886253
328.7753525
328.7745234
328.6765646
328.4828792
328.1968006
327.8235181
327.3696035
326.84267
326.2510628
325.6035857
324.9092604
324.1771159
323.4160014
322.6344247
321.8404141
321.0414099
320.244187
319.4548108
318.6786251
317.9202693
317.1837158
316.4723227
315.7888916
315.1357239
314.5146714
313.9271749
313.3742944
312.8567279
312.3748254
311.9285988
311.5177333
311.1416019
310.7992861
310.4896039
310.2111438
309.9623051
309.7413418
309.5464086
309.3756078
309.2270334
309.0988126
308.9891425
308.8963224
308.8187799
308.755093
308.7040083
308.6644557
308.6355609
308.6166504
308.6072058
311.0563235
311.1093694
311.2150698
311.3731685
311.5827775
311.8429552
312.1527646
312.5112334
312.9172723
313.3695798
313.8665527
314.4062099
314.9861345
315.6034374
316.2547424
316.9361949
317.6434931
318.3719403
319.1165176
319.8719705
320.6329043
321.39388
322.1495002
322.8944767
323.6236715
324.3321085
325.0149555
325.6674815
326.2849935
326.8627601
327.3959289
327.8794466
328.3079974
328.6759898
328.9775876
329.2067668
329.3574279
329.4236474
329.4043401
329.2990647
329.0869893
328.7751586
328.3637102
327.8551685
327.2547492
326.5704753
325.8130829
324.9957113
324.133397
323.2424194
322.3395715
321.4414337
320.5637317
319.720837
318.9254451
318.1884385
317.5189122
316.9243254
316.4107307
315.983041
315.6452751
315.4007368
315.2529401
315.2032869
315.2515352
315.3992181
315.6456694
315.9889374
316.4255821
316.9505196
317.5569416
318.2363481
318.9787255
319.7728852
320.6069461
321.4689107
322.3472373
323.2312924
324.1115692
324.9796056
325.8276134
326.6479127
327.4323286
328.1717226
328.8558013
329.4732743
330.012355
330.4614988
330.8102576
331.0499558
331.1643844
331.1731929
331.0664139
330.8448098
330.5132361
330.0787964
329.5501793
328.9371838
328.2503281
327.50053
326.6988396
325.8562104
324.9832944
324.0902575
323.1866158
322.2810993
321.3815511
320.4948681
319.6269838
318.7828928
317.9667086
317.1817461
316.4306158
315.7153212
315.0373476
314.3977379
313.7971512
313.2359053
312.7140035
312.231153
311.7867767
311.3800248
311.0097895
310.6747251
310.3732749
310.1037047
309.8641421
309.6526189
309.4671158
309.3056061
309.1660977
309.0466707
308.9455115
308.8609402
308.7914353
308.7356524
308.6924417
308.6608621
308.640188
308.6298663
311.3065082
311.365703
311.4836848
311.6600377
311.8936431
312.1833423
312.5280074
312.9264888
313.3775099
313.8795474
314.4307184
315.0286853
315.6705869
316.352995
317.0719021
317.8227375
318.600414
319.3994032
320.2138356
321.037621
321.8645802
322.6885768
323.5036353
324.3040311
325.0843418
325.839455
326.5645373
327.2549708
327.9062672
328.5139666
329.0735275
329.580216
330.0290086
330.4145259
330.7310382
330.9724972
331.1325931
331.2049511
331.1879385
331.0833895
330.8656534
330.541466
330.110364
329.573852
328.9363369
328.2053694
327.3916575
326.508826
325.5729267
324.601742
323.6139589
322.6283105
321.6627811
320.7339609
319.8566014
319.0433924
318.3049426
317.6499231
317.0853147
316.6167085
316.2486075
315.984649
315.8287939
315.7819741
315.8441348
316.0165117
316.2979537
316.6858041
317.1757019
317.7614565
318.4350346
319.1867039
320.0053632
320.8790637
321.7956773
322.7436086
323.7123962
324.6930289
325.6778366
326.6599235
327.6322469
328.5865678
329.5125528
330.3972859
331.2253524
331.9795251
332.6419604
333.1956226
333.62569
333.9206313
334.0601832
334.0715424
333.942676
333.675775
333.2784546
332.760744
332.134212
331.4113777
330.6052847
329.729188
328.7963138
327.8196547
326.8117777
325.7846347
324.7493778
323.7161927
322.6941634
321.6911835
320.7139201
319.767833
318.8572444
317.9854466
317.1548348
316.3670484
315.6231082
314.9235376
314.2684607
313.6576763
313.090708
312.5668346
312.0851077
311.6443618
311.2432231
310.8801211
310.5533066
310.2608757
310.0008023
309.7709745
309.5692354
309.3934252
309.2414219
309.11118
309.0007644
308.9083808
308.8324007
308.7713827
308.7240916
308.6895145
308.6668702
308.6555683
311.5926502
311.6590081
311.7912699
311.9887993
312.2501755
312.5739508
312.9587357
313.4031325
313.9056034
314.4643218
315.0770339
315.7409446
316.452636
317.2080201
318.0023294
318.8301447
319.6854605
320.561785
321.4522741
322.3498908
323.2475813
324.1384535
325.0159352
325.8738929
326.7066909
327.5091862
328.276668
329.0047612
329.6893065
330.3262296
330.9114053
331.4405185
331.9089331
332.311575
332.6429068
332.8969306
333.0671821
333.1468309
333.133133
333.0313832
332.811415
332.4776965
332.0299085
331.4681887
330.7957538
330.0192845
329.1490822
328.1989421
327.185722
326.128634
325.0483388
323.9659478
322.9020562
321.8759148
320.9048207
320.0037649
319.1853294
318.4597952
317.8353907
317.3186142
316.9145839
316.6273271
316.4612529
316.4167368
316.4937998
316.6932155
317.0131449
317.4500025
317.9982831
318.6505006
319.3972892
320.2277164
321.1298359
322.0914581
323.1010433
324.1485339
325.2258758
326.3269779
327.4469667
328.5808007
329.7215415
330.858727
331.977283
333.0572949
334.0747879
335.0034287
335.8169335
336.4915213
337.0081064
337.3507228
337.5004386
337.4969851
337.3215745
336.9827246
336.4922293
335.8640497
335.1132162
334.2552117
333.3056158
332.2798978
331.1932822
330.0606303
328.8963009
327.7139774
326.5264698
325.3455095
324.1815645
323.0436992
321.9394959
320.8750463
319.855014
318.8827559
317.9604863
317.0894646
316.2701847
315.5025517
314.7860314
314.1197664
313.5026601
312.933428
312.4106273
311.9326689
311.4978223
311.1042189
310.7498589
310.4326252
310.1503048
309.9006181
309.6812528
309.4899029
309.3243063
309.1822834
309.0617715
308.9608551
308.8777936
308.8110436
308.7592798
308.7214141
308.6966065
308.684228
311.9155747
311.9901376
312.1387229
312.3603993
312.6533553
313.0157625
313.4458797
313.9419705
314.5021429
315.1241691
315.8053207
316.5422361
317.3308268
318.1662288
319.0427977
319.9541488
320.8932402
321.8524986
322.8239859
323.7996023
324.7713171
325.7314093
326.6726873
327.5886519
328.4735645
329.322413
330.1307972
330.8947719
331.6106753
332.274961
332.8840354
333.4340983
333.9209847
334.3400106
334.6859143
334.9528244
335.1341913
335.2227545
335.213802
335.1177038
334.9000143
334.5610577
334.1012405
333.5190649
332.8161554
331.9978588
331.0735932
330.0568881
328.9650658
327.8185691
326.6400041
325.4530139
324.2811235
323.1466974
322.0701182
321.0692521
320.1592136
319.3523928
318.6586775
318.0857826
317.6396271
317.3247029
317.1458656
317.1028475
317.1955715
317.4241557
317.7858286
318.275819
318.8872424
319.611152
320.4368192
321.3523001
322.3453026
323.4042883
324.5196237
325.6844661
326.8949888
328.1496036
329.4470882
330.7839229
332.1514997
333.5339663
334.9072677
336.239693
337.4940101
338.6309076
339.6134257
340.4107701
341.0013105
341.3622712
341.4942588
341.4404863
341.1817683
340.734928
340.1177904
339.3489415
338.4469356
337.4298996
336.3154216
335.1205787
333.8620015
332.5559036
331.2180337
329.8635395
328.5067577
327.1609619
325.8381075
324.5486121
323.3012006
322.1028378
320.9587525
319.8725498
318.8463916
317.8812228
316.9770164
316.1330114
315.3479251
314.6201265
313.9477648
313.328856
312.761331
312.2430583
311.7718477
311.3454465
310.9615362
310.6177332
310.3115987
310.0406559
309.8024172
309.5944152
309.4142375
309.2595626
309.1281939
309.0180903
308.9273944
308.8544571
308.7978602
308.7564372
308.7292879
308.7157432
312.2757388
312.359552
312.5265015
312.775271
313.1035526
313.5090276
313.9894935
314.5427672
315.1664944
315.857939
316.6137928
317.4300248
318.3017803
319.2233307
320.1880736
321.1885798
322.2166869
323.263639
324.320276
325.377279
326.4254679
327.4561372
328.4613838
329.4343582
330.3693583
331.2617405
332.107701
332.904008
333.6477443
334.3360845
334.9661071
335.5346251
336.0380182
336.4720597
336.8318322
337.1116621
337.304995
337.4042271
337.4017447
337.3143407
337.1040117
336.7651442
336.2993343
335.703195
334.9763647
334.1223584
333.1491561
332.0694686
330.9005984
329.6638661
328.3836522
327.086167
325.798109
324.5453812
323.3520129
322.239385
321.2257981
320.3263628
319.5531466
318.9154841
318.4203582
318.0728358
317.8782204
317.8355237
317.9443339
318.2038927
318.6102115
319.1570496
319.8359091
320.636265
321.5461162
322.5529176
323.6448831
324.8125151
326.0500263
327.3561262
328.7335592
330.1869603
331.7191219
333.3264888
334.9951866
336.6987066
338.3977141
340.0420881
341.5753342
342.9408069
344.0896216
344.9857233
345.6080859
345.931284
346.0035192
345.8436358
345.45212
344.8543722
344.0747078
343.1360474
342.0596325
340.8651364
339.570992
338.1947712
336.7535167
335.2639585
333.7425781
332.2055171
330.6683557
329.1458031
327.6513523
326.1969511
324.7927349
323.4468579
322.1654408
320.9526369
319.8108038
318.7407514
317.7420358
316.8132632
315.952374
315.1568868
314.4240888
313.7511701
313.1353062
312.5736983
312.0635843
311.6022315
311.1869233
310.8149479
310.4835929
310.1901506
309.931933
309.7062944
309.5106607
309.3425605
309.1996576
309.0797811
308.9809539
308.9014186
308.8396615
308.7944367
308.7647826
308.7499897
312.6730878
312.7671697
312.954459
313.2331514
313.6003223
314.0530366
314.5885063
315.2039816
315.8965334
316.662815
317.4988496
318.3998684
319.3602047
320.3732431
321.4314184
322.5262553
323.6484463
324.7879728
325.9342858
327.0765743
328.2041473
329.3069285
330.3760011
331.4040644
332.3856091
333.3167277
334.1946847
335.0174328
335.7831988
336.4901773
337.1363185
337.719168
338.2357169
338.6822411
339.0542061
339.3461827
339.5516706
339.662727
339.6695058
339.5924301
339.3943528
339.0614139
338.5965002
337.9941343
337.2516188
336.3701489
335.3556688
334.2194219
332.9780663
331.6532805
330.2708732
328.8594989
327.4491472
326.069609
324.7491015
323.5131943
322.3841085
321.3803958
320.5169438
319.805217
319.25362
318.8679634
318.6540114
318.6099996
318.734882
319.0267803
319.4801683
320.0870337
320.8370474
321.7180658
322.7170724
323.8216254
325.0217531
326.3120224
327.6932026
329.1726571
330.7625336
332.4752582
334.3168994
336.280257
338.3400139
340.451225
342.5508071
344.5616746
346.4006005
347.9889358
349.2674533
350.2019643
350.7686338
350.9804166
350.9249605
350.5891545
350.0085749
349.2162994
348.2418497
347.1107346
345.8449561
344.4638681
342.9850619
341.4251378
339.8003074
338.1267894
336.4209781
334.6993939
332.9784481
331.274073
329.6012746
327.9736731
326.4030909
324.8992396
323.469545
322.1191233
320.8509038
319.6658713
318.5633927
317.5415814
316.5976598
315.7282859
314.9298222
314.1985354
313.530729
312.9228162
312.3713472
311.8730057
311.4245895
311.0229866
310.6651564
310.348119
310.0689566
309.8248253
309.6129754
309.4307769
309.2757484
309.1455856
309.0381893
308.9516918
308.8844835
308.835238
308.8029324
308.7868173
313.1069106
313.2122151
313.4216811
313.7329025
314.1422075
314.6459091
315.2405027
315.9225523
316.6884537
317.5341752
318.4550337
319.4455293
320.4992405
321.6087712
322.765732
323.9607391
325.1834206
326.4224445
327.6656109
328.9000883
330.1128915
331.2916605
332.4256631
333.506753
334.5297869
335.4922372
336.3933039
337.2329781
338.0113344
338.7280895
339.3823818
339.972657
340.4965861
340.9509619
341.3316257
341.6333928
341.8498445
341.9727867
341.991397
341.9248398
341.7426411
341.4212666
340.9642411
340.3638828
339.6148991
338.7157334
337.6696973
336.4858572
335.1794831
333.7719254
332.2898834
330.7641374
329.2279147
327.7151135
326.2586083
324.888823
323.6326847
322.513002
321.5482431
320.7526324
320.1364578
319.7065227
319.4690847
319.4215889
319.5619919
319.8870363
320.3893095
321.0587163
321.8829132
322.8482009
323.9410165
325.1500899
326.4691315
327.8995644
329.4523363
331.1474118
333.0095509
335.0599234
337.3051757
339.7277982
342.2816905
344.8933781
347.4659079
349.8844098
352.0288858
353.7929338
355.1147332
355.9703345
356.3521037
356.384037
356.0895912
355.5073955
354.6854706
353.6632689
352.4724309
351.1378949
349.6796644
348.1144938
346.4572852
344.7221654
342.9232793
341.0753083
339.1937112
337.2947076
335.395035
333.5115287
331.6605806
329.8575446
328.1161594
326.4480598
324.8624321
323.3658506
321.9623025
320.6533846
319.4386321
318.3159295
317.2819478
316.332562
315.4632137
314.6691949
313.9458494
313.2886959
312.6934855
312.1562125
311.6730948
311.240542
310.8551219
310.5135344
310.2125973
309.949244
309.720533
309.5236655
309.3560088
309.2151213
309.0987799
309.005006
308.9320935
308.878636
308.8435499
308.8260473
313.5757046
313.6930792
313.9263375
314.2723534
314.7265747
315.2844278
315.9415678
316.6937736
317.5367036
318.4656329
319.4752338
320.559422
321.7112624
322.9229071
324.1855302
325.4892194
326.8228047
328.1736435
329.5274521
330.8683652
332.1794848
333.444157
334.6479492
335.7808281
336.8382515
337.8203595
338.7300178
339.5708901
340.3461792
341.0579778
341.7071161
342.2931784
342.814578
343.2685882
343.6513455
343.9578321
344.181675
344.3145649
344.3449304
344.2886509
344.1240893
343.8185873
343.375508
342.784894
342.0386977
341.1322574
340.0656942
338.8451687
337.4837351
336.0015857
334.4255817
332.7880981
331.1253359
329.4753396
327.875982
326.3631438
324.9692498
323.7222498
322.6450599
321.7554194
321.0660683
320.5851461
320.319471
320.2657407
320.4204913
320.7788225
321.3310646
322.0647309
322.9653278
324.0177887
325.2087155
326.5294915
327.9800138
329.5722332
331.3319362
333.2965443
335.5068508
337.992502
340.7549689
343.7556226
346.9150652
350.1204325
353.2309542
356.0795255
358.4922215
360.3242755
361.535779
362.1101134
362.2115858
361.9194224
361.2923312
360.4019871
359.3017185
358.0308543
356.6179207
355.0833543
353.4423078
351.7068799
349.8877667
347.9954457
346.0410253
344.036803
341.9965447
339.9354976
337.8701608
335.8178455
333.7960701
331.8218494
329.9109562
328.077238
326.3320691
324.6839979
323.1386208
321.6986802
320.3643549
319.1336865
318.0030784
316.9678037
316.0224704
315.1614079
314.3789567
313.6696616
313.0283776
312.450308
311.9309956
311.4662874
311.0522905
310.6853302
310.361919
310.0787387
309.8326368
309.6206332
309.4399361
309.2879631
309.1623652
309.0610527
308.9822233
308.9243918
308.8864154
308.8674693
314.0770622
314.2072044
314.4655653
314.8481834
315.3495033
315.9639464
316.6862326
317.5113044
318.4340996
319.4493097
320.5511939
321.7334625
322.9892062
324.3108161
325.6898217
327.116568
328.5796807
330.0653379
331.5564996
333.0324508
334.46925
335.841802
337.1278305
338.3130048
339.3938457
340.3759669
341.269481
342.084877
342.8307984
343.5130852
344.1349956
344.6975314
345.1998505
345.6395601
346.0128808
346.3147562
346.5387101
346.6762299
346.7149799
346.6669418
346.5189958
346.2318462
345.8068266
345.2321286
344.4969572
343.5932888
342.5175652
341.2723416
339.8675963
338.3214299
336.6599706
334.9164452
333.129533
331.3412436
329.5946056
327.9314369
326.3904036
325.0055042
323.805052
322.8111676
322.0397235
321.5006371
321.2014034
321.1380874
321.3053297
321.6963288
322.2987758
323.0974942
324.0757599
325.2174545
326.5102997
327.9502321
329.5464984
331.326188
333.3357296
335.6358606
338.2869413
341.3249961
344.7362293
348.4447128
352.3228763
356.211092
359.9202972
363.2087567
365.809185
367.5105874
368.3145526
368.4622345
368.1027134
367.3485683
366.3185444
365.0849308
363.6941217
362.1767344
360.5526113
358.8343523
357.0302738
355.1466085
353.1890454
351.1637962
349.078369
346.9421029
344.7664643
342.5651053
340.3536846
338.1494579
335.9706589
333.8357176
331.7623863
329.766868
327.8630467
326.0619072
324.3712053
322.7954097
321.3358994
319.9913635
318.758333
317.6317671
316.6056228
315.6733559
314.828318
314.064041
313.3744115
312.7537532
312.1968424
311.6988789
311.2554356
310.8624033
310.5159432
310.2124521
309.9485429
309.7210393
309.5269817
309.3636418
309.2285429
309.1194838
309.0345673
308.9722309
308.9312746
308.9108392
314.6075942
314.7510093
315.0353987
315.4558651
316.0057525
316.6783971
317.4675461
318.3673417
319.3721465
320.4763665
321.6743415
322.9603052
324.3283613
325.7723737
327.2856361
328.8601749
330.4855672
332.1472572
333.8245693
335.4890062
337.1039906
338.6279134
340.0219162
341.2620572
342.3470313
343.2942995
344.1285848
344.8730635
345.5458766
346.1585515
346.7176709
347.2258118
347.6826511
348.0857381
348.4309292
348.7127089
348.9241414
349.0562225
349.095551
349.0511675
348.9147339
348.6459756
348.2399709
347.6848273
346.966907
346.0746341
345.0003876
343.7425021
342.3070498
340.7090632
338.972922
337.1317754
335.2260579
333.3013188
331.405674
329.58718
327.8913779
326.3591915
325.0253209
323.9172204
323.0546806
322.4499339
322.1113259
322.0344847
322.211645
322.6338603
323.2857987
324.1493109
325.2054087
326.4373395
327.8350922
329.401398
331.1585937
333.1544181
335.4629665
338.1753956
341.3755438
345.1016749
349.3088872
353.8601412
358.5632997
363.2174785
367.6044588
371.359664
374.0050441
375.1428439
375.3224955
374.7699611
373.7423855
372.4481059
370.9891117
369.4130421
367.7457743
366.0021311
364.1897498
362.3119326
360.3696566
358.36318
356.2931789
354.1615479
351.972026
349.7306805
347.4462261
345.1301583
342.7966727
340.4623453
338.1455656
335.8657434
333.6423503
331.493888
329.4369006
327.4851458
325.6490172
323.935274
322.3470844
320.8843437
319.5441969
318.3216762
317.2103663
316.2030232
315.2920932
314.4701078
313.7299479
313.0649917
312.4691688
311.9369506
311.4633014
311.0436148
310.6736503
310.3494817
310.0674607
309.8241964
309.6165507
309.4416434
309.2968676
309.1799104
309.088781
309.0218416
308.9778376
308.9558777
315.1628985
315.3198647
315.6307608
316.0896821
316.6888213
317.4204146
318.2772917
319.2529645
320.3415587
321.5377622
322.8368565
324.234812
325.7283451
327.3147677
328.9914017
330.7543006
332.5960444
334.5024774
336.4485328
338.3938972
340.2803532
342.0350296
343.5844232
344.8835167
345.9358199
346.7855251
347.4864844
348.0843944
348.6138353
349.0941178
349.5359093
349.9429852
350.3147203
350.6477257
350.9366512
351.1747787
351.3540715
351.4644769
351.4910426
351.4427331
351.3088011
351.0520583
350.6629501
350.1279093
349.4306363
348.555992
347.492072
346.2325169
344.7787568
343.1418025
341.3432118
339.4149902
337.3984008
335.3418663
333.2982709
331.3219858
329.4658918
327.7786231
326.3022416
325.0705376
324.1080866
323.430061
323.0458896
322.9510421
323.134825