/*--------------------------------*- C++ -*----------------------------------*\
| =========                 |                                                 |
| \\      /  F ield         | OpenFOAM: The Open Source CFD Toolbox           |
|  \\    /   O peration     | Version:  2412                                  |
|   \\  /    A nd           | Website:  www.openfoam.com                      |
|    \\/     M anipulation  |                                                 |
\*---------------------------------------------------------------------------*/
FoamFile
{
    version     2.0;
    format      ascii;
    arch        "LSB;label=32;scalar=64";
    class       volVectorField;
    location    "0.1";
    object      U;
}
// * * * * * * * * * * * * * * * * * * * * * * * * * * * * * * * * * * * * * //

dimensions      [0 1 -1 0 0 0 0];

internalField   nonuniform List<vector> 
12008
(
(-1.451030212e-05 1.139290427e-05 0)
(-8.679236399e-05 2.308887038e-05 0)
(-0.0001861529401 2.725314674e-05 0)
(-0.0002873113402 2.698309475e-05 0)
(-0.0003757501963 2.511913605e-05 0)
(-0.0004463629605 2.265480643e-05 0)
(-0.0004966031783 1.994457504e-05 0)
(-0.000524642954 1.702156525e-05 0)
(-0.0005286530892 1.380316366e-05 0)
(-0.0005065940613 1.019098652e-05 0)
(-0.00045626197 6.108088913e-06 0)
(-0.0003754478657 1.517536005e-06 0)
(-0.0002621145347 -3.575802127e-06 0)
(-0.00011457298 -9.131285023e-06 0)
(6.833181219e-05 -1.506681823e-05 0)
(0.0002870417349 -2.125766327e-05 0)
(0.0005411137589 -2.753512429e-05 0)
(0.0008290683073 -3.368957879e-05 0)
(0.001148269728 -3.947836117e-05 0)
(0.001494857531 -4.463617417e-05 0)
(0.001863741848 -4.889349036e-05 0)
(0.002248679692 -5.199475845e-05 0)
(0.002642434969 -5.372150909e-05 0)
(0.003037017198 -5.391199471e-05 0)
(0.003423988079 -5.247793035e-05 0)
(0.003794811235 -4.941316025e-05 0)
(0.004141215563 -4.479650576e-05 0)
(0.004455543927 -3.878565066e-05 0)
(0.004731060348 -3.161102449e-05 0)
(0.004962115884 -2.354298932e-05 0)
(0.00514446792 -1.46908895e-05 0)
(0.005274422593 -5.049339408e-06 0)
(0.005349475696 4.906059122e-06 0)
(0.005369098806 1.457566168e-05 0)
(0.005334806203 2.368299656e-05 0)
(0.005249402888 3.20376642e-05 0)
(0.005116764122 3.949200926e-05 0)
(0.004941641362 4.593081082e-05 0)
(0.004729391091 5.129700362e-05 0)
(0.004485869805 5.553679772e-05 0)
(0.004217162319 5.866605108e-05 0)
(0.003929329765 6.069739588e-05 0)
(0.003628356287 6.169209519e-05 0)
(0.003319935648 6.172839137e-05 0)
(0.003009361896 6.08992514e-05 0)
(0.002701447553 5.930836975e-05 0)
(0.002400475877 5.706222312e-05 0)
(0.002110191699 5.426502148e-05 0)
(0.00183382627 5.101171712e-05 0)
(0.001574147256 4.73848536e-05 0)
(0.001333522021 4.345254703e-05 0)
(0.001113980149 3.927100463e-05 0)
(0.0009172497108 3.488177838e-05 0)
(0.0007447510903 3.032867443e-05 0)
(0.0005974774415 2.574711856e-05 0)
(0.0004757498044 2.128035848e-05 0)
(0.0003793743543 1.696636638e-05 0)
(0.0003078652546 1.283313746e-05 0)
(0.0002603654077 8.960730398e-06 0)
(0.0002355338774 5.444213511e-06 0)
(0.0002315281701 2.38086198e-06 0)
(0.0002460324608 -1.376787747e-07 0)
(0.0002763175465 -2.032519693e-06 0)
(0.0003192953778 -3.235911033e-06 0)
(0.0003716535629 -3.704781371e-06 0)
(0.000429987983 -3.406649357e-06 0)
(0.0004908595072 -2.335236191e-06 0)
(0.000550892337 -5.028884303e-07 0)
(0.0006068570618 2.065221584e-06 0)
(0.0006557141999 5.332765085e-06 0)
(0.0006946362154 9.255140833e-06 0)
(0.0007210124004 1.37813127e-05 0)
(0.0007324457772 1.88536278e-05 0)
(0.0007267534146 2.440549051e-05 0)
(0.0007019803233 3.035859765e-05 0)
(0.0006564383912 3.661922104e-05 0)
(0.0005887724043 4.307401625e-05 0)
(0.0004980551573 4.958740601e-05 0)
(0.0003839068975 5.600154074e-05 0)
(0.0002466263833 6.21389545e-05 0)
(8.731702733e-05 6.780696432e-05 0)
(-9.200945153e-05 7.280612933e-05 0)
(-0.0002883680907 7.693941561e-05 0)
(-0.0004977958667 8.002415976e-05 0)
(-0.0007154165351 8.190571251e-05 0)
(-0.0009355824875 8.247042414e-05 0)
(-0.00115209738 8.165701491e-05 0)
(-0.00135850357 7.946647979e-05 0)
(-0.001548412002 7.596181377e-05 0)
(-0.001715860188 7.126540005e-05 0)
(-0.001855633371 6.555324532e-05 0)
(-0.00196352985 5.903614754e-05 0)
(-0.002036604571 5.196788453e-05 0)
(-0.002073399576 4.464627545e-05 0)
(-0.002074059169 3.738541255e-05 0)
(-0.002040245504 3.047198454e-05 0)
(-0.001974802512 2.410829152e-05 0)
(-0.001881486588 1.842824553e-05 0)
(-0.001764649373 1.351557288e-05 0)
(-0.00162918769 9.408013574e-06 0)
(-0.001480299225 6.112894471e-06 0)
(-0.001323177115 3.608509952e-06 0)
(-0.001162869112 1.856758621e-06 0)
(-0.001004079569 7.916754018e-07 0)
(-0.0008509775942 3.174956278e-07 0)
(-0.0007070704479 3.195519693e-07 0)
(-0.0005751201934 6.741890017e-07 0)
(-0.000457109069 1.256936928e-06 0)
(-0.0003542484259 1.949848892e-06 0)
(-0.0002670312473 2.645805533e-06 0)
(-0.000195304463 3.256423433e-06 0)
(-0.000138376454 3.713423972e-06 0)
(-9.513835063e-05 3.969299703e-06 0)
(-6.418090705e-05 3.995018288e-06 0)
(-4.391107345e-05 3.779770169e-06 0)
(-3.265966943e-05 3.328419817e-06 0)
(-2.8765471e-05 2.659149606e-06 0)
(-3.064407699e-05 1.79840801e-06 0)
(-3.683163265e-05 7.766602696e-07 0)
(-4.601232339e-05 -3.726753144e-07 0)
(-5.703216803e-05 -1.615770551e-06 0)
(-6.890402163e-05 -2.920357452e-06 0)
(-8.080276209e-05 -4.256173287e-06 0)
(-9.205698598e-05 -5.596585142e-06 0)
(-0.0001021373443 -6.917542228e-06 0)
(-0.0001106397339 -8.198966859e-06 0)
(-0.0001172669294 -9.425840413e-06 0)
(-0.0001218066678 -1.058760119e-05 0)
(-0.0001241059734 -1.167955118e-05 0)
(-0.0001240388374 -1.270446692e-05 0)
(-0.0001214647907 -1.367491722e-05 0)
(-0.0001161893532 -1.461235293e-05 0)
(-0.0001079300255 -1.554445913e-05 0)
(-9.631958342e-05 -1.649557437e-05 0)
(-8.099143452e-05 -1.746283738e-05 0)
(-6.182375635e-05 -1.836404941e-05 0)
(-3.942849191e-05 -1.895541241e-05 0)
(-1.581176179e-05 -1.875835937e-05 0)
(3.498385262e-06 -1.673319107e-05 0)
(7.144707637e-06 -8.965243878e-06 0)
(-2.612710973e-05 7.74950655e-05 0)
(-0.0001634752089 0.0001545142992 0)
(-0.0003365993289 0.0001745853455 0)
(-0.0005030840226 0.0001618015119 0)
(-0.0006365547012 0.0001335001692 0)
(-0.0007259702965 9.803266202e-05 0)
(-0.00076497877 5.853800834e-05 0)
(-0.0007488205542 1.571780003e-05 0)
(-0.0006729898373 -3.063577859e-05 0)
(-0.0005328202708 -8.085237613e-05 0)
(-0.0003236165142 -0.0001350458113 0)
(-4.092734074e-05 -0.0001930415006 0)
(0.0003191665528 -0.0002543458678 0)
(0.0007596039405 -0.0003181157828 0)
(0.00128196572 -0.000383166864 0)
(0.00188610193 -0.0004479867026 0)
(0.002569786148 -0.0005107633908 0)
(0.003328422296 -0.0005694351323 0)
(0.004154831574 -0.0006217699185 0)
(0.005039149809 -0.0006654732586 0)
(0.00596886303 -0.0006983237841 0)
(0.006929006308 -0.000718322176 0)
(0.007902528545 -0.0007238449382 0)
(0.008870815882 -0.0007137773135 0)
(0.009814343386 -0.0006876144049 0)
(0.01071340548 -0.0006455122894 0)
(0.01154886886 -0.0005882851284 0)
(0.01230288567 -0.0005173443979 0)
(0.0129595134 -0.0004345894472 0)
(0.01350527834 -0.0003422436081 0)
(0.01392895147 -0.0002424749852 0)
(0.01422314268 -0.000136999085 0)
(0.01438328368 -2.84995594e-05 0)
(0.01440601423 7.925525611e-05 0)
(0.01429345776 0.0001831441993 0)
(0.01405094337 0.0002807897297 0)
(0.01368656845 0.0003702488901 0)
(0.01321084087 0.0004499636334 0)
(0.01263607943 0.0005188163801 0)
(0.01197612256 0.0005759824979 0)
(0.01124575725 0.0006211257384 0)
(0.01046016025 0.0006541632328 0)
(0.009634660335 0.0006753872599 0)
(0.008784194509 0.000685364092 0)
(0.007922987579 0.0006848801962 0)
(0.007064270795 0.0006748814244 0)
(0.006220079599 0.0006564041014 0)
(0.005401140303 0.0006305072817 0)
(0.004616840274 0.0005982118037 0)
(0.003875268813 0.0005604585112 0)
(0.003183303996 0.0005180906699 0)
(0.002546704724 0.0004718769675 0)
(0.001970196131 0.0004225586983 0)
(0.001457491583 0.000370969749 0)
(0.001010936987 0.0003182593232 0)
(0.0006317641062 0.0002657305018 0)
(0.0003193097897 0.0002142783359 0)
(7.168336912e-05 0.0001646087382 0)
(-0.0001139607032 0.0001176624057 0)
(-0.000241727507 7.444828311e-05 0)
(-0.0003169548072 3.594846347e-05 0)
(-0.0003461122553 3.047973427e-06 0)
(-0.0003366256396 -2.352205493e-05 0)
(-0.0002966978221 -4.321622203e-05 0)
(-0.0002349705127 -5.574163473e-05 0)
(-0.0001601932653 -6.100438144e-05 0)
(-8.102424479e-05 -5.913753779e-05 0)
(-5.755189709e-06 -5.045917879e-05 0)
(5.790916383e-05 -3.542557438e-05 0)
(0.000102986878 -1.458110397e-05 0)
(0.0001232973706 1.148553189e-05 0)
(0.0001134843638 4.217539783e-05 0)
(6.900237933e-05 7.68958148e-05 0)
(-1.391160042e-05 0.0001150554453 0)
(-0.0001382579705 0.0001560430786 0)
(-0.0003062623273 0.0001991904464 0)
(-0.0005193182593 0.0002437266984 0)
(-0.0007778744771 0.0002887344957 0)
(-0.001081271264 0.0003331139776 0)
(-0.001427540485 0.0003755685419 0)
(-0.00181319409 0.0004146157873 0)
(-0.00223303593 0.0004486299676 0)
(-0.002680035365 0.0004759160486 0)
(-0.003145299636 0.0004948113505 0)
(-0.003618177718 0.000503813704 0)
(-0.004086519088 0.0005017211514 0)
(-0.004537095094 0.0004877678319 0)
(-0.004956172263 0.0004617361897 0)
(-0.005330189539 0.0004240180033 0)
(-0.005646504739 0.0003756253813 0)
(-0.005894121462 0.0003181515191 0)
(-0.006064282084 0.0002536592818 0)
(-0.006150994494 0.0001846501002 0)
(-0.006151550295 0.0001139865697 0)
(-0.006066810045 4.461817422e-05 0)
(-0.005900927372 -2.077577854e-05 0)
(-0.005660589208 -8.019032603e-05 0)
(-0.005354760883 -0.0001323248907 0)
(-0.004993376339 -0.0001760458778 0)
(-0.004588156459 -0.0002104326719 0)
(-0.004151596904 -0.0002350155814 0)
(-0.003696552843 -0.0002498022229 0)
(-0.003235576672 -0.0002552177234 0)
(-0.002780396374 -0.0002520546102 0)
(-0.002341519043 -0.0002414118417 0)
(-0.001927902157 -0.0002246072661 0)
(-0.001546737664 -0.0002030877959 0)
(-0.001203341422 -0.0001783394143 0)
(-0.0009011449758 -0.0001518059579 0)
(-0.0006417806352 -0.000124820766 0)
(-0.000425251579 -9.855050074e-05 0)
(-0.0002501496494 -7.395599663e-05 0)
(-0.0001139187388 -5.176872264e-05 0)
(-1.314144149e-05 -3.248957383e-05 0)
(5.618492853e-05 -1.639291069e-05 0)
(9.837204211e-05 -3.563769026e-06 0)
(0.0001178049038 6.068264056e-06 0)
(0.0001187620369 1.269151884e-05 0)
(0.0001052733543 1.65724697e-05 0)
(8.10362354e-05 1.802521178e-05 0)
(4.935992418e-05 1.738832459e-05 0)
(1.314221927e-05 1.500571285e-05 0)
(-2.513572865e-05 1.121159911e-05 0)
(-6.339716778e-05 6.319450761e-06 0)
(-9.99451681e-05 6.148761445e-07 0)
(-0.00013342769 -5.651513582e-06 0)
(-0.0001627930679 -1.22717963e-05 0)
(-0.0001872371597 -1.908819723e-05 0)
(-0.0002061405238 -2.600248942e-05 0)
(-0.0002189923277 -3.29873194e-05 0)
(-0.0002253045092 -4.009600601e-05 0)
(-0.0002245259867 -4.745327785e-05 0)
(-0.0002159869976 -5.520955187e-05 0)
(-0.0001989327731 -6.34278236e-05 0)
(-0.000172724436 -7.186219907e-05 0)
(-0.0001373638013 -7.959126195e-05 0)
(-9.436204397e-05 -8.451654964e-05 0)
(-4.810737574e-05 -8.278426375e-05 0)
(-8.424834562e-06 -6.838984053e-05 0)
(8.114186955e-06 -3.286695144e-05 0)
(-2.925504975e-05 0.0001706688169 0)
(-0.0001829373436 0.0003217628489 0)
(-0.0003660602492 0.000350107886 0)
(-0.000530414908 0.0003093992546 0)
(-0.0006449213008 0.000233948253 0)
(-0.0006954172887 0.0001408805968 0)
(-0.0006729511921 3.704661033e-05 0)
(-0.0005705199893 -7.570539734e-05 0)
(-0.0003816692364 -0.0001974012596 0)
(-0.0001001273469 -0.0003283096119 0)
(0.0002803985878 -0.0004684145641 0)
(0.0007657207267 -0.0006170082435 0)
(0.001360717619 -0.0007726064556 0)
(0.0020688182 -0.0009329205238 0)
(0.002891495546 -0.001094876102 0)
(0.003827775565 -0.001254653771 0)
(0.004873789258 -0.001407770237 0)
(0.006022397203 -0.001549207238 0)
(0.007262919493 -0.001673604118 0)
(0.008581015243 -0.001775513685 0)
(0.009958744502 -0.001849712028 0)
(0.01137484392 -0.001891540787 0)
(0.01280522306 -0.001897247638 0)
(0.01422366743 -0.001864284218 0)
(0.01560270909 -0.001791526043 0)
(0.01691460209 -0.001679382267 0)
(0.01813232589 -0.001529780478 0)
(0.01923054045 -0.001346028422 0)
(0.02018642414 -0.001132566998 0)
(0.02098038962 -0.0008946448539 0)
(0.02159666109 -0.0006380470492 0)
(0.02202224143 -0.0003681960341 0)
(0.02225231292 -9.079173562e-05 0)
(0.02228106185 0.0001866905809 0)
(0.02210966403 0.0004563971082 0)
(0.0217443066 0.0007121315186 0)
(0.02119512178 0.0009487202478 0)
(0.02047593846 0.00116189423 0)
(0.01960350571 0.001348381834 0)
(0.01859713587 0.001505724688 0)
(0.0174779424 0.00163254887 0)
(0.01626809608 0.001728225427 0)
(0.01499046404 0.001793054387 0)
(0.01366774459 0.001828086393 0)
(0.01232195811 0.001835006594 0)
(0.01097394438 0.001815993684 0)
(0.009642953852 0.001773558989 0)
(0.008346360002 0.001710378297 0)
(0.007099495799 0.001629137897 0)
(0.0059156035 0.001532418186 0)
(0.004805875253 0.001422632567 0)
(0.003779533749 0.001302044248 0)
(0.002843943727 0.001172866471 0)
(0.002004755466 0.001037420894 0)
(0.001265535831 0.0008984582799 0)
(0.0006282227692 0.0007593965062 0)
(9.224876133e-05 0.0006233244727 0)
(-0.0003462461285 0.000492434467 0)
(-0.0006923193829 0.0003692081513 0)
(-0.0009529349856 0.0002562539077 0)
(-0.001136860597 0.0001560703704 0)
(-0.00125449212 7.087162598e-05 0)
(-0.001317568482 2.44377694e-06 0)
(-0.001338886263 -4.794887349e-05 0)
(-0.001331770056 -7.969698607e-05 0)
(-0.001309569544 -9.276027984e-05 0)
(-0.001285325877 -8.770852264e-05 0)
(-0.001271307816 -6.561477237e-05 0)
(-0.001278655015 -2.793871782e-05 0)
(-0.001317131731 2.360399783e-05 0)
(-0.00139497393 8.717003823e-05 0)
(-0.001518827389 0.0001608905286 0)
(-0.001693762655 0.0002429371416 0)
(-0.001923336024 0.000331541439 0)
(-0.00220967165 0.0004249704379 0)
(-0.002553533086 0.0005214614989 0)
(-0.002954356764 0.0006191303981 0)
(-0.003410232894 0.0007158696853 0)
(-0.003917824604 0.0008092569947 0)
(-0.004472230709 0.0008965001859 0)
(-0.005066816124 0.0009744350179 0)
(-0.005693043886 0.001039590626 0)
(-0.006340354792 0.001088331611 0)
(-0.006996141853 0.001117070072 0)
(-0.007645860592 0.001122542011 0)
(-0.008273317257 0.001102126176 0)
(-0.008861159054 0.001054165701 0)
(-0.009391564443 0.0009782431488 0)
(-0.00984708098 0.000875347279 0)
(-0.01021157242 0.0007479202602 0)
(-0.01047120339 0.0005997863066 0)
(-0.01061520196 0.0004359016112 0)
(-0.01063647664 0.0002622839294 0)
(-0.01053246128 8.587226662e-05 0)
(-0.01030551512 -8.611209129e-05 0)
(-0.009962753333 -0.0002478804855 0)
(-0.009513019343 -0.0003950677703 0)
(-0.008968240365 -0.0005237861832 0)
(-0.008344052814 -0.0006308348153 0)
(-0.007657590897 -0.0007138510709 0)
(-0.006927160107 -0.0007716008145 0)
(-0.006171440505 -0.0008039965435 0)
(-0.00540872885 -0.0008120348455 0)
(-0.004656252276 -0.0007976602252 0)
(-0.00392957596 -0.0007635862597 0)
(-0.00324213195 -0.000713094866 0)
(-0.002604888569 -0.0006498224856 0)
(-0.002026165726 -0.0005775439022 0)
(-0.001511593125 -0.0004999711902 0)
(-0.00106419336 -0.0004205769025 0)
(-0.0006845795248 -0.0003424517209 0)
(-0.0003712372369 -0.0002681988118 0)
(-0.0001208691762 -0.0001998704091 0)
(7.121767324e-05 -0.0001389446856 0)
(0.0002107394882 -8.634800862e-05 0)
(0.000304049543 -4.248876265e-05 0)
(0.0003577887762 -7.320223701e-06 0)
(0.0003785508145 1.952654848e-05 0)
(0.0003726560476 3.865249712e-05 0)
(0.0003459847743 5.080914528e-05 0)
(0.0003038827654 5.683274182e-05 0)
(0.0002511061408 5.759369025e-05 0)
(0.0001918017977 5.395522074e-05 0)
(0.000129512526 4.674354601e-05 0)
(6.720369261e-05 3.672168602e-05 0)
(7.306749144e-06 2.45702039e-05 0)
(-4.822224604e-05 1.086741536e-05 0)
(-9.783020243e-05 -3.932481274e-06 0)
(-0.0001402793841 -1.952104585e-05 0)
(-0.0001745445009 -3.576126547e-05 0)
(-0.0001997005771 -5.269700271e-05 0)
(-0.0002148135866 -7.052400968e-05 0)
(-0.0002188793382 -8.947256085e-05 0)
(-0.0002108763611 -0.0001095412228 0)
(-0.00019001401 -0.0001300122131 0)
(-0.0001563320234 -0.0001487059468 0)
(-0.0001117086923 -0.0001610105669 0)
(-6.117214049e-05 -0.0001590314635 0)
(-1.582889884e-05 -0.0001310886139 0)
(6.804055889e-06 -6.238763702e-05 0)
(-2.85071967e-05 0.0002673110487 0)
(-0.0001750108275 0.0004876752801 0)
(-0.0003400858494 0.0005134886445 0)
(-0.0004735097926 0.0004305552352 0)
(-0.0005424076116 0.0002910494134 0)
(-0.0005309309271 0.0001212234428 0)
(-0.0004283966774 -6.813707438e-05 0)
(-0.0002262729004 -0.0002737271847 0)
(8.320690783e-05 -0.0004951369634 0)
(0.0005078051614 -0.0007326046693 0)
(0.001055029735 -0.0009857384011 0)
(0.001731717223 -0.001253008845 0)
(0.002543498707 -0.001531574863 0)
(0.003494204353 -0.0018172375 0)
(0.004585264976 -0.00210446694 0)
(0.00581513034 -0.002386477467 0)
(0.007178730618 -0.002655368182 0)
(0.008667019799 -0.002902352613 0)
(0.0102666434 -0.003118088455 0)
(0.01195978048 -0.003293116877 0)
(0.01372420611 -0.003418390736 0)
(0.01553361301 -0.003485855001 0)
(0.01735820635 -0.003489024552 0)
(0.01916555582 -0.003423492509 0)
(0.02092165608 -0.00328729859 0)
(0.02259211652 -0.003081113329 0)
(0.02414338461 -0.002808211337 0)
(0.02554391007 -0.002474243339 0)
(0.02676517226 -0.002086836873 0)
(0.02778251333 -0.0016550781 0)
(0.0285759461 -0.001189002393 0)
(0.02912970158 -0.0006990843983 0)
(0.0294340537 -0.0001951640065 0)
(0.02948451343 0.0003108347258 0)
(0.02927972158 0.0008054892989 0)
(0.0288260353 0.001277664666 0)
(0.0281344234 0.00171781086 0)
(0.02722057255 0.002117848775 0)
(0.02610407084 0.002471314939 0)
(0.02480806899 0.002773201061 0)
(0.0233583945 0.003020273297 0)
(0.02178274213 0.003210695474 0)
(0.02011026154 0.003344297413 0)
(0.0183703668 0.003422336423 0)
(0.016592076 0.003447332906 0)
(0.01480327556 0.003422854053 0)
(0.01303007196 0.003353244676 0)
(0.0112962755 0.003243338032 0)
(0.009623040841 0.003098170917 0)
(0.00802866588 0.002922748833 0)
(0.006528535838 0.002721892246 0)
(0.005135172903 0.002500201494 0)
(0.003858349882 0.002262153709 0)
(0.002705357291 0.002012287366 0)
(0.001680868379 0.001755470271 0)
(0.0007867199029 0.001497638243 0)
(2.361838934e-05 0.001245611633 0)
(-0.0006142474544 0.001004253919 0)
(-0.001134487837 0.0007781322828 0)
(-0.00154698051 0.0005719954533 0)
(-0.001863906877 0.0003903542469 0)
(-0.002099476108 0.0002371623072 0)
(-0.002269545037 0.0001155519939 0)
(-0.002391251524 2.764544097e-05 0)
(-0.002482286394 -2.563667412e-05 0)
(-0.002560231966 -4.450894876e-05 0)
(-0.002642100596 -3.034276393e-05 0)
(-0.002743648583 1.450906368e-05 0)
(-0.002878882986 8.692454455e-05 0)
(-0.003059684944 0.0001832582861 0)
(-0.003295563221 0.0002995918061 0)
(-0.003593545233 0.0004319486987 0)
(-0.003958188227 0.0005764530201 0)
(-0.004391687365 0.0007294149336 0)
(-0.004894048954 0.000887334894 0)
(-0.005463291109 0.001046836851 0)
(-0.00609563595 0.001204539897 0)
(-0.006785661472 0.001356895297 0)
(-0.007526383251 0.001500022781 0)
(-0.008309259441 0.001629582848 0)
(-0.009124126025 0.001740727138 0)
(-0.009959090681 0.001828155476 0)
(-0.01080043298 0.001886297432 0)
(-0.01163256117 0.001909619297 0)
(-0.01243807435 0.001893048231 0)
(-0.01319799901 0.001832496311 0)
(-0.0138922515 0.001725409873 0)
(-0.01450035831 0.001571267498 0)
(-0.01500238003 0.001371902682 0)
(-0.01537999969 0.001131612778 0)
(-0.01561775911 0.000857058381 0)
(-0.01570388484 0.0005568629081 0)
(-0.01563091081 0.000241554516 0)
(-0.01539692741 -7.64810427e-05 0)
(-0.01500731379 -0.0003854147441 0)
(-0.01446871248 -0.0006760077153 0)
(-0.01379323287 -0.0009402390668 0)
(-0.01299759005 -0.001170661601 0)
(-0.01210128918 -0.001361274794 0)
(-0.01112609584 -0.001507980934 0)
(-0.01009518562 -0.001608630449 0)
(-0.009032196691 -0.001663040898 0)
(-0.007960349014 -0.001672905302 0)
(-0.006901615852 -0.001641585847 0)
(-0.005876000808 -0.001573823592 0)
(-0.004900954121 -0.001475397037 0)
(-0.003990954515 -0.001352751757 0)
(-0.003157259911 -0.001212630013 0)
(-0.002407825549 -0.001061720109 0)
(-0.001747372072 -0.0009063447044 0)
(-0.001177583396 -0.000752206633 0)
(-0.0006974102511 -0.0006041948724 0)
(-0.0003034537132 -0.0004662624131 0)
(9.604604479e-06 -0.0003413709167 0)
(0.0002485437669 -0.0002314965161 0)
(0.0004211392085 -0.0001376875323 0)
(0.0005357644748 -6.018566852e-05 0)
(0.0006010097437 1.496062022e-06 0)
(0.0006252538153 4.832468232e-05 0)
(0.0006164092466 8.157769624e-05 0)
(0.000581757153 0.0001027181085 0)
(0.0005278654131 0.0001132976816 0)
(0.0004605465093 0.0001148810996 0)
(0.0003848503829 0.000108985043 0)
(0.0003050877316 9.703001247e-05 0)
(0.0002248736148 8.029918042e-05 0)
(0.0001471898816 5.990234048e-05 0)
(7.446900377e-05 3.673653223e-05 0)
(8.694828782e-06 1.1445905e-05 0)
(-4.848033787e-05 -1.56167703e-05 0)
(-9.560513495e-05 -4.440336716e-05 0)
(-0.0001313098418 -7.51102362e-05 0)
(-0.000154226785 -0.0001079769599 0)
(-0.0001630411047 -0.0001428500873 0)
(-0.0001567493376 -0.0001784251572 0)
(-0.0001352340417 -0.0002111257192 0)
(-0.0001002335256 -0.0002337267177 0)
(-5.659054264e-05 -0.0002341558779 0)
(-1.513858681e-05 -0.0001950528144 0)
(6.556704917e-06 -9.385384226e-05 0)
(-2.651865194e-05 0.0003568306453 0)
(-0.0001574483964 0.0006342415845 0)
(-0.0002942067175 0.0006451396635 0)
(-0.0003863625998 0.0005066966904 0)
(-0.0004004841214 0.0002888180192 0)
(-0.0003196640019 2.66575042e-05 0)
(-0.0001320861814 -0.0002650243048 0)
(0.000171850035 -0.0005814568708 0)
(0.0006013011438 -0.0009219505719 0)
(0.001165256269 -0.001286525721 0)
(0.001872375627 -0.001674281521 0)
(0.002730527293 -0.002082678124 0)
(0.003746184155 -0.002507262805 0)
(0.00492375732 -0.002941595318 0)
(0.006264909627 -0.003377272362 0)
(0.007767876783 -0.003804033946 0)
(0.009426824962 -0.004209965421 0)
(0.01123129276 -0.004581833722 0)
(0.01316576719 -0.004905574737 0)
(0.01520945817 -0.005166944924 0)
(0.01733633589 -0.005352308293 0)
(0.01951548054 -0.005449508812 0)
(0.02171177083 -0.005448741721 0)
(0.02388690035 -0.005343321094 0)
(0.02600065829 -0.005130237016 0)
(0.02801236654 -0.004810426848 0)
(0.02988235128 -0.004388731477 0)
(0.03157332682 -0.003873554634 0)
(0.03305160098 -0.003276284189 0)
(0.03428803461 -0.002610555076 0)
(0.03525887424 -0.001891462959 0)
(0.03594591633 -0.001134892065 0)
(0.03633564487 -0.0003558256343 0)
(0.03642431804 0.0004283583483 0)
(0.03620804472 0.001198413386 0)
(0.03569313036 0.001937520071 0)
(0.03489081754 0.002630901982 0)
(0.03381786512 0.003265783395 0)
(0.03249575076 0.003831597793 0)
(0.03095041206 0.004319906826 0)
(0.02921128243 0.0047247483 0)
(0.02731054485 0.00504230314 0)
(0.02528272994 0.005271275606 0)
(0.02316320397 0.00541264219 0)
(0.02098740872 0.005469472698 0)
(0.01878989657 0.005446666067 0)
(0.01660342116 0.005350586041 0)
(0.01445815593 0.005188637023 0)
(0.01238108421 0.004968823254 0)
(0.01039558941 0.004699344013 0)
(0.0085212571 0.004388290422 0)
(0.006773860301 0.004043489609 0)
(0.005165475681 0.003672529723 0)
(0.003704759219 0.003282950655 0)
(0.002397237856 0.002882435936 0)
(0.001244487068 0.002479480622 0)
(0.0002472340251 0.002084995369 0)
(-0.0005996217753 0.001708781971 0)
(-0.001306926134 0.001358173119 0)
(-0.001887603711 0.001040457593 0)
(-0.002357285081 0.0007625509918 0)
(-0.00273396678 0.0005304664758 0)
(-0.003037551554 0.0003489087107 0)
(-0.003289402259 0.0002209438943 0)
(-0.003511440666 0.0001477522664 0)
(-0.00372532387 0.0001286106575 0)
(-0.003951820998 0.0001609248228 0)
(-0.004209904135 0.0002404667107 0)
(-0.004516089942 0.0003617058086 0)
(-0.004883912868 0.0005182087759 0)
(-0.005323575918 0.0007030543648 0)
(-0.005841790215 0.0009092161759 0)
(-0.006441795717 0.001129869716 0)
(-0.007123544928 0.001358600266 0)
(-0.007884013144 0.00158948978 0)
(-0.008717592635 0.001817083309 0)
(-0.009616517724 0.002036246987 0)
(-0.01057126224 0.002241940058 0)
(-0.01157085531 0.00242894849 0)
(-0.01260307161 0.00259163774 0)
(-0.01365448426 0.002723793021 0)
(-0.01471039823 0.002818606023 0)
(-0.01575471388 0.002868840396 0)
(-0.01676977576 0.002867185252 0)
(-0.01773626547 0.002806805894 0)
(-0.01863325734 0.002682097383 0)
(-0.01943855221 0.002489524752 0)
(-0.02012938067 0.002228438239 0)
(-0.02068344095 0.001901641758 0)
(-0.02108019632 0.001515588409 0)
(-0.02130243847 0.001080258937 0)
(-0.02133716286 0.0006085699485 0)
(-0.02117598777 0.0001165006184 0)
(-0.02081846861 -0.0003773164601 0)
(-0.02027038353 -0.0008563582863 0)
(-0.01953908159 -0.001306840226 0)
(-0.01864138789 -0.001715660372 0)
(-0.01759705472 -0.002071420585 0)
(-0.01642946051 -0.002365204006 0)
(-0.0151646626 -0.002590840709 0)
(-0.01383036294 -0.002745051506 0)
(-0.01245487658 -0.002827487468 0)
(-0.01106609735 -0.002840602511 0)
(-0.009690535403 -0.002789366413 0)
(-0.008352474052 -0.002680846241 0)
(-0.007073289468 -0.002523704937 0)
(-0.005870958461 -0.002327655354 0)
(-0.004759760631 -0.002102912336 0)
(-0.00375016588 -0.001859675701 0)
(-0.002848888189 -0.001607670461 0)
(-0.002059082166 -0.001355765218 0)
(-0.001380650649 -0.001111679134 0)
(-0.0008106411985 -0.0008817851869 0)
(-0.0003437026019 -0.0006710065681 0)
(2.742364615e-05 -0.0004828053193 0)
(0.0003114061576 -0.0003192462805 0)
(0.0005178233181 -0.0001811237004 0)
(0.0006567086783 -6.816497936e-05 0)
(0.0007382565126 2.086819524e-05 0)
(0.0007722834893 8.780906945e-05 0)
(0.0007679411481 0.000134827334 0)
(0.0007335740698 0.0001642640789 0)
(0.0006766588118 0.0001785106243 0)
(0.0006037824972 0.0001799127951 0)
(0.0005206574844 0.0001706932756 0)
(0.000432158718 0.0001528848456 0)
(0.0003423884439 0.0001282729446 0)
(0.000254761538 9.83364031e-05 0)
(0.0001721124486 6.418381276e-05 0)
(9.682021243e-05 2.650266394e-05 0)
(3.094934422e-05 -1.445817306e-05 0)
(-2.361729861e-05 -5.88011841e-05 0)
(-6.509305059e-05 -0.0001067005371 0)
(-9.180033675e-05 -0.0001577948989 0)
(-0.0001024085522 -0.0002101659063 0)
(-9.647073075e-05 -0.0002588606378 0)
(-7.53226304e-05 -0.0002941213184 0)
(-4.32444544e-05 -0.0002998684674 0)
(-1.026148602e-05 -0.0002530745077 0)
(6.831821531e-06 -0.0001234117412 0)
(-2.425252311e-05 0.000437573154 0)
(-0.0001382800944 0.0007582781501 0)
(-0.000244779145 0.0007415077983 0)
(-0.0002936126953 0.0005345738463 0)
(-0.0002511303594 0.0002247140076 0)
(-9.967044091e-05 -0.0001441415973 0)
(0.0001733752533 -0.0005534974769 0)
(0.0005787596224 -0.0009973442459 0)
(0.001126815335 -0.001474688362 0)
(0.001827746462 -0.001985329945 0)
(0.002691431955 -0.002527805965 0)
(0.003726906775 -0.003098454391 0)
(0.00494169641 -0.003691033331 0)
(0.006341069498 -0.004296599382 0)
(0.007927252591 -0.004903516939 0)
(0.009698635212 -0.005497579901 0)
(0.01164899678 -0.00606227254 0)
(0.01376681183 -0.00657921145 0)
(0.01603469551 -0.007028810184 0)
(0.01842907197 -0.007391172592 0)
(0.02092015115 -0.007647193144 0)
(0.0234722914 -0.007779790953 0)
(0.02604479461 -0.007775154139 0)
(0.02859312937 -0.007623840954 0)
(0.03107050206 -0.007321579474 0)
(0.03342962402 -0.006869640329 0)
(0.0356244994 -0.006274754453 0)
(0.03761207057 -0.005548613504 0)
(0.03935360976 -0.004707051588 0)
(0.04081578082 -0.00376902649 0)
(0.04197147565 -0.002755514196 0)
(0.04280040509 -0.001688463431 0)
(0.04328603327 -0.000588819793 0)
(0.0434260201 0.0005200530432 0)
(0.04321382826 0.001612868822 0)
(0.04265568125 0.002666482013 0)
(0.04176296214 0.003660250913 0)
(0.04055314819 0.004576001574 0)
(0.03904909604 0.005398286179 0)
(0.03727886604 0.006114438521 0)
(0.03527472031 0.006714915912 0)
(0.03307258209 0.007193101055 0)
(0.03071169031 0.007545814743 0)
(0.02823278816 0.007773120868 0)
(0.02567732152 0.007878189382 0)
(0.02308627016 0.007867026561 0)
(0.02049897195 0.007748051963 0)
(0.01795204782 0.007531550445 0)
(0.01547848987 0.007229054011 0)
(0.01310698324 0.006852724294 0)
(0.01086150327 0.006414828875 0)
(0.00876118404 0.005927384361 0)
(0.006820424382 0.005402035776 0)
(0.005049168046 0.004850171592 0)
(0.003453353515 0.004283171191 0)
(0.002034942854 0.003712766316 0)
(0.0007916931058 0.003152548605 0)
(-0.0002784283986 0.002619153604 0)
(-0.001188318668 0.002124742956 0)
(-0.001954583206 0.001679531122 0)
(-0.002596435433 0.00129310928 0)
(-0.003135755939 0.0009738149039 0)
(-0.003596526318 0.0007281107991 0)
(-0.004004334542 0.0005600804999 0)
(-0.004385320989 0.0004710700226 0)
(-0.004765183397 0.000459566561 0)
(-0.005168349622 0.0005212666042 0)
(-0.005616834581 0.0006493851144 0)
(-0.00612938048 0.0008351321215 0)
(-0.006720761709 0.0010683081 0)
(-0.00740131926 0.001337942603 0)
(-0.008176757697 0.001632912251 0)
(-0.009048202678 0.001942474327 0)
(-0.01001250721 0.002256670877 0)
(-0.01106277564 0.002566566629 0)
(-0.01218903974 0.002864300347 0)
(-0.01337902091 0.003142947012 0)
(-0.01461887769 0.003396208971 0)
(-0.01589382983 0.003617987424 0)
(-0.01718856716 0.003801923934 0)
(-0.01848738923 0.003941025599 0)
(-0.01977408781 0.004027477508 0)
(-0.02103163415 0.004052702356 0)
(-0.0222417356 0.004007684764 0)
(-0.02338433167 0.003883614939 0)
(-0.02443726208 0.003672942683 0)
(-0.0253763341 0.003370633303 0)
(-0.02617600207 0.002975511526 0)
(-0.02681067657 0.002491220746 0)
(-0.02725642878 0.001926543357 0)
(-0.02749311362 0.001295287574 0)
(-0.02750516486 0.0006153142888 0)
(-0.02728219014 -9.086533836e-05 0)
(-0.02682594506 -0.000798206545 0)
(-0.02613714491 -0.001483669044 0)
(-0.02523004318 -0.002127592066 0)
(-0.02412277775 -0.002711387086 0)
(-0.02283839398 -0.00321938126 0)
(-0.02140417312 -0.003639237346 0)
(-0.01985052739 -0.003962326974 0)
(-0.01820988448 -0.004183999969 0)
(-0.0165154727 -0.00430365087 0)
(-0.01480011327 -0.00432455572 0)
(-0.01309509038 -0.00425348346 0)
(-0.01142917193 -0.004100125711 0)
(-0.009827828865 -0.003876407512 0)
(-0.008312679126 -0.003595738119 0)
(-0.0069011581 -0.003272264266 0)
(-0.00560639917 -0.002920169048 0)
(-0.004437297893 -0.002553055854 0)
(-0.003398721882 -0.002183434476 0)
(-0.002491835567 -0.001822325638 0)
(-0.0017145089 -0.001478986547 0)
(-0.001061784833 -0.001160753769 0)
(-0.0005263832682 -0.0008729978875 0)
(-9.922874585e-05 -0.000619184155 0)
(0.0002300369989 -0.0004010160346 0)
(0.0004725523731 -0.0002186439116 0)
(0.0006397091595 -7.096266321e-05 0)