/*--------------------------------*- C++ -*----------------------------------*\
| =========                 |                                                 |
| \\      /  F ield         | OpenFOAM: The Open Source CFD Toolbox           |
|  \\    /   O peration     | Version:  5.x                                   |
|   \\  /    A nd           | Web:      www.OpenFOAM.org                      |
|    \\/     M anipulation  |                                                 |
\*---------------------------------------------------------------------------*/
FoamFile
{
    version     2.0;
    format      ascii;
    class       volVectorField;
    location    "0.2";
    object      Urom;
}
// * * * * * * * * * * * * * * * * * * * * * * * * * * * * * * * * * * * * * //

dimensions      [0 1 -1 0 0 0 0];

internalField   nonuniform List<vector> 
17720
(
(0.978204 0.00298489 0)
(0.915015 0.00313426 0)
(2.44918 0.0284235 0)
(0.848664 0.00340446 0)
(2.31825 0.0295256 0)
(3.61002 0.065112 0)
(0.780169 0.00369562 0)
(2.18278 0.0305912 0)
(3.45943 0.0672388 0)
(4.52052 0.102748 0)
(0.712828 0.00374182 0)
(2.04668 0.0306936 0)
(3.30376 0.068893 0)
(4.38198 0.106002 0)
(5.22593 0.136863 0)
(0.650025 0.00350654 0)
(1.91686 0.0291594 0)
(3.14671 0.0679806 0)
(4.23875 0.109117 0)
(5.10609 0.139774 0)
(5.79292 0.170047 0)
(0.594189 0.00314451 0)
(1.79904 0.0263582 0)
(2.99732 0.0636136 0)
(4.0887 0.107731 0)
(4.98922 0.145001 0)
(5.67625 0.169584 0)
(6.28218 0.206157 0)
(0.546963 0.00269126 0)
(1.69603 0.0228934 0)
(2.8634 0.0569484 0)
(3.94015 0.10033 0)
(4.86375 0.145766 0)
(5.57374 0.174453 0)
(6.15659 0.201644 0)
(6.70531 0.242141 0)
(0.508789 0.00221764 0)
(1.60911 0.0190178 0)
(2.74796 0.0493295 0)
(3.80556 0.0888816 0)
(4.72951 0.13762 0)
(5.4725 0.178008 0)
(6.04516 0.202762 0)
(6.58718 0.239158 0)
(7.03348 0.267517 0)
(0.478713 0.00180482 0)
(1.53856 0.0151481 0)
(2.65051 0.0410715 0)
(3.69194 0.0764094 0)
(4.59968 0.121815 0)
(5.36211 0.171886 0)
(5.94827 0.205636 0)
(6.46135 0.236344 0)
(6.95751 0.274869 0)
(7.25965 0.277714 0)
(0.456503 0.00116795 0)
(1.48338 0.0115064 0)
(2.56957 0.0327632 0)
(3.59871 0.0637677 0)
(4.48765 0.10324 0)
(5.24841 0.15479 0)
(5.85472 0.200508 0)
(6.34984 0.234634 0)
(6.84763 0.275235 0)
(7.23533 0.295488 0)
(7.43037 0.281321 0)
(0.443765 0.000476644 0)
(1.44307 0.00769555 0)
(2.50402 0.0249682 0)
(3.52129 0.0516578 0)
(4.39758 0.0850439 0)
(5.14353 0.131595 0)
(5.76222 0.1833 0)
(6.25479 0.226616 0)
(6.72742 0.269672 0)
(7.18233 0.307788 0)
(7.42651 0.297691 0)
(7.61358 0.291803 0)
(0.440529 -0.0001843 0)
(1.41825 0.00373147 0)
(2.45337 0.0174914 0)
(3.45522 0.0406598 0)
(4.32572 0.0693403 0)
(5.05322 0.107529 0)
(5.676 0.158561 0)
(6.17102 0.206956 0)
(6.61889 0.255915 0)
(7.09242 0.307508 0)
(7.43384 0.319751 0)
(7.58917 0.293422 0)
(7.8405 0.312085 0)
(0.44374 -0.000638202 0)
(1.40679 0.000424492 0)
(2.41725 0.00991501 0)
(3.39929 0.0300559 0)
(4.26449 0.0563779 0)
(4.97804 0.0872072 0)
(5.59541 0.132001 0)
(6.09898 0.180287 0)
(6.52539 0.231243 0)
(6.98304 0.291856 0)
(7.41196 0.334277 0)
(7.61443 0.3109 0)
(7.78925 0.29872 0)
(8.08009 0.327675 0)
(0.448505 -0.000768625 0)
(1.40312 -0.0012229 0)
(2.39284 0.00401006 0)
(3.35327 0.0194027 0)
(4.21003 0.0441595 0)
(4.915 0.071785 0)
(5.51825 0.108645 0)
(6.03527 0.153783 0)
(6.44709 0.199913 0)
(6.87157 0.262462 0)
(7.3411 0.329115 0)
(7.65282 0.337446 0)
(7.78333 0.297595 0)
(8.04325 0.316298 0)
(8.27688 0.31967 0)
(0.452713 -0.000680001 0)
(1.40003 -0.00141155 0)
(2.37477 0.00144726 0)
(3.31546 0.0111753 0)
(4.16276 0.0318221 0)
(4.86162 0.0576789 0)
(5.4474 0.0897724 0)
(5.97146 0.130962 0)
(6.38708 0.170452 0)
(6.76957 0.224768 0)
(7.22996 0.302463 0)
(7.65131 0.353123 0)
(7.82881 0.320425 0)
(7.9993 0.298959 0)
(8.30304 0.329637 0)
(8.41048 0.285718 0)
(0.457429 -0.000925406 0)
(1.39402 -0.000853117 0)
(2.35678 0.00198661 0)
(3.28328 0.00740801 0)
(4.12175 0.0216831 0)
(4.82018 0.0430748 0)
(5.38845 0.0714622 0)
(5.90651 0.110494 0)
(6.34249 0.147105 0)
(6.6924 0.186511 0)
(7.10561 0.259689 0)
(7.58336 0.342808 0)
(7.88205 0.352278 0)
(7.99885 0.302551 0)
(8.26752 0.317358 0)
(8.50098 0.317894 0)
(8.51335 0.246763 0)
(0.465047 -0.00112366 0)
(1.38618 -0.00150137 0)
(2.3346 0.00382432 0)
(3.25353 0.0086611 0)
(4.08596 0.0164557 0)
(4.7921 0.0307075 0)
(5.34964 0.0509733 0)
(5.84839 0.0872878 0)
(6.30576 0.126963 0)
(6.65309 0.155026 0)
(7.0033 0.208498 0)
(7.46784 0.302397 0)
(7.88892 0.366072 0)
(8.05212 0.330593 0)
(8.21952 0.303514 0)
(8.52988 0.332696 0)
(8.61336 0.278154 0)
(8.62327 0.226273 0)
(0.476791 -0.00174652 0)
(1.38054 -0.00272223 0)
(2.30708 0.00356016 0)
(3.22238 0.0117935 0)
(4.05392 0.0170918 0)
(4.77408 0.0246465 0)
(5.338 0.0330389 0)
(5.80977 0.0579419 0)
(6.27281 0.101571 0)
(6.64851 0.131039 0)
(6.95273 0.160004 0)
(7.35517 0.238518 0)
(7.83301 0.339779 0)
(8.1207 0.359052 0)
(8.22384 0.307356 0)
(8.49238 0.323067 0)
(8.71385 0.319135 0)
(8.67928 0.231675 0)
(8.73446 0.224873 0)
(0.491281 -0.00181401 0)
(1.38023 -0.00459414 0)
(2.27726 0.00133647 0)
(3.18515 0.0132048 0)
(4.02332 0.0205895 0)
(4.75888 0.0250426 0)
(5.35035 0.0245085 0)
(5.80446 0.0295423 0)
(6.2481 0.0650391 0)
(6.66083 0.105485 0)
(6.96165 0.122654 0)
(7.29119 0.168304 0)
(7.75 0.270814 0)
(8.15731 0.351901 0)
(8.30108 0.325218 0)
(8.45379 0.30142 0)
(8.75551 0.335989 0)
(8.79993 0.270076 0)
(8.7485 0.20052 0)
(8.82261 0.226303 0)
(0.505014 -0.00154984 0)
(1.38508 -0.00494074 0)
(2.25048 -0.00199766 0)
(3.13896 0.0116497 0)
(3.98838 0.0245073 0)
(4.73948 0.0292473 0)
(5.37173 0.0263489 0)
(5.83668 0.0135476 0)
(6.24557 0.0248015 0)
(6.67394 0.0670241 0)
(7.01206 0.0926302 0)
(7.29315 0.110043 0)
(7.69038 0.181467 0)
(8.15311 0.290108 0)
(8.41475 0.325656 0)
(8.49072 0.284456 0)
(8.74069 0.310954 0)
(8.93503 0.31054 0)
(8.83863 0.205407 0)
(8.83213 0.183966 0)
(8.88833 0.218012 0)
(0.51305 -0.000914072 0)
(1.39055 -0.00351142 0)
(2.23089 -0.00390919 0)
(3.08802 0.00696145 0)
(3.94114 0.0259572 0)
(4.7111 0.0352769 0)
(5.3827 0.0349109 0)
(5.8926 0.0151118 0)
(6.27893 -0.0028157 0)
(6.68822 0.0197357 0)
(7.07362 0.0556687 0)
(7.3526 0.066909 0)
(7.68031 0.101343 0)
(8.13424 0.19343 0)
(8.51439 0.277795 0)
(8.62363 0.266443 0)
(8.74166 0.257561 0)
(9.01918 0.307906 0)
(9.01559 0.237475 0)
(8.89106 0.148212 0)
(8.92111 0.166789 0)
(8.95113 0.196313 0)
(0.511673 0.00017454 0)
(1.39026 6.2375e-05 0)
(2.21841 -0.00251211 0)
(3.04287 0.00242334 0)
(3.88153 0.0217832 0)
(4.66947 0.0400921 0)
(5.37075 0.0452267 0)
(5.94476 0.0303614 0)
(6.34625 -0.00657794 0)
(6.71939 -0.0184011 0)
(7.12547 0.0090154 0)
(7.44498 0.0273306 0)
(7.7229 0.0394984 0)
(8.12748 0.0987231 0)
(8.57605 0.189956 0)
(8.80416 0.223914 0)
(8.83757 0.197112 0)
(9.04954 0.244618 0)
(9.21421 0.258309 0)
(9.05057 0.138274 0)
(8.97858 0.102294 0)
(9.01406 0.136863 0)
(9.02608 0.161294 0)
(0.502052 0.000920128 0)
(1.38086 0.00364769 0)
(2.21013 0.00181994 0)
(3.01248 0.00064038 0)
(3.82335 0.0144992 0)
(4.61574 0.0379078 0)
(5.33678 0.0531481 0)
(5.96764 0.0497814 0)
(6.42531 0.0122125 0)
(6.77869 -0.0308176 0)
(7.17036 -0.0331376 0)
(7.54016 -0.0152707 0)
(7.81223 -0.0116167 0)
(8.14829 0.0200146 0)
(8.60564 0.0961942 0)
(8.96326 0.154731 0)
(9.03576 0.136224 0)
(9.10403 0.141857 0)
(9.3501 0.218861 0)
(9.3054 0.152352 0)
(9.10303 0.0418799 0)
(9.09356 0.0575024 0)
(9.11502 0.0902842 0)
(9.11569 0.113169 0)
(0.489786 0.00153733 0)
(1.36662 0.00544464 0)
(2.20547 0.00570068 0)
(2.99993 0.00162719 0)
(3.78514 0.00636354 0)
(4.56385 0.0274419 0)
(5.29276 0.0516659 0)
(5.95662 0.0638954 0)
(6.48667 0.0416304 0)
(6.85809 -0.0139839 0)
(7.22323 -0.052155 0)
(7.61945 -0.0534207 0)
(7.93147 -0.055552 0)
(8.20974 -0.0491106 0)
(8.62332 0.00991497 0)
(9.06558 0.0792396 0)
(9.26761 0.0791443 0)
(9.25761 0.0391118 0)
(9.42319 0.105001 0)
(9.56357 0.145715 0)
(9.33771 0.0138416 0)
(9.20077 -0.0380638 0)
(9.22243 0.00343057 0)
(9.22383 0.0281861 0)
(9.21608 0.0534261 0)
(0.481501 0.00188034 0)
(1.35843 0.00441263 0)
(2.20822 0.00636589 0)
(3.00615 0.0025596 0)
(3.77464 0.00106375 0)
(4.53532 0.0118382 0)
(5.25749 0.0359846 0)
(5.93011 0.0622318 0)
(6.51727 0.0651293 0)
(6.93807 0.0201455 0)
(7.28944 -0.0399777 0)
(7.68421 -0.0725318 0)
(8.05084 -0.0870908 0)
(8.32085 -0.105375 0)
(8.65589 -0.0764852 0)
(9.11625 0.00120507 0)
(9.46027 0.0309506 0)
(9.50128 -0.0295096 0)
(9.51961 -0.04057 0)
(9.73398 0.062347 0)
(9.6541 0.012614 0)
(9.37839 -0.119493 0)
(9.33651 -0.105652 0)
(9.35403 -0.0643758 0)
(9.33546 -0.046168 0)
(9.32009 -0.0157303 0)
(0.482937 0.0014741 0)
(1.36775 0.000795184 0)
(2.22364 0.00113355 0)
(3.03211 -0.000395889 0)
(3.79145 -0.0041599 0)
(4.53882 -0.00101485 0)
(5.2497 0.0122191 0)
(5.91279 0.0392709 0)
(6.52899 0.0658349 0)
(7.00733 0.0500999 0)
(7.36459 -0.00747387 0)
(7.74469 -0.0623256 0)
(8.14767 -0.0986712 0)
(8.46357 -0.13662 0)
(8.73589 -0.154057 0)
(9.14248 -0.0927438 0)
(9.58248 -0.0217855 0)
(9.76472 -0.0582736 0)
(9.71147 -0.14766 0)
(9.8294 -0.0938716 0)
(9.94303 -0.0241183 0)
(9.66144 -0.15519 0)
(9.46989 -0.223564 0)
(9.48609 -0.172909 0)
(9.47872 -0.145308 0)
(9.44476 -0.127272 0)
(9.41653 -0.094164 0)
(0.495476 0.000822311 0)
(1.40273 -0.00452173 0)
(2.25553 -0.00886471 0)
(3.07193 -0.00864926 0)
(3.83077 -0.012154 0)
(4.56831 -0.012445 0)
(5.27561 -0.00817824 0)
(5.92244 0.00609046 0)
(6.5403 0.0378444 0)
(7.06951 0.0544595 0)
(7.44816 0.0210468 0)
(7.80851 -0.0338098 0)
(8.22186 -0.0846487 0)
(8.59869 -0.13775 0)
(8.87291 -0.196542 0)
(9.18906 -0.192606 0)
(9.63954 -0.105824 0)
(9.9787 -0.0768047 0)
(9.98919 -0.182906 0)
(9.94934 -0.245964 0)
(10.12 -0.144316 0)
(10.0026 -0.171265 0)
(9.67128 -0.31089 0)
(9.6075 -0.300543 0)
(9.62679 -0.248892 0)
(9.58886 -0.235278 0)
(9.54569 -0.210663 0)
(9.5001 -0.179723 0)
(0.514405 0.00040765 0)
(1.46133 -0.00863973 0)
(2.30944 -0.0209743 0)
(3.11344 -0.0212897 0)
(3.87728 -0.0207864 0)
(4.60913 -0.0235653 0)
(5.32221 -0.0228616 0)
(5.96453 -0.0217412 0)
(6.56444 -0.00342238 0)
(7.1277 0.0270477 0)
(7.54526 0.0248194 0)
(7.88439 -0.0121543 0)
(8.28496 -0.0570261 0)
(8.70452 -0.114125 0)
(9.03248 -0.193221 0)
(9.29577 -0.256669 0)
(9.67035 -0.218057 0)
(10.1043 -0.130532 0)
(10.2782 -0.174373 0)
(10.173 -0.31951 0)
(10.22 -0.310733 0)
(10.2867 -0.234337 0)
(9.96779 -0.350575 0)
(9.74296 -0.424477 0)
(9.75732 -0.368439 0)
(9.7436 -0.335881 0)
(9.68176 -0.326998 0)
(9.62923 -0.295356 0)
(9.5786 -0.262022 0)
(0.532638 0.000573385 0)
(1.53057 -0.00969656 0)
(2.38913 -0.0301849 0)
(3.15521 -0.0380954 0)
(3.90852 -0.0303092 0)
(4.64016 -0.0290906 0)
(5.36289 -0.0311628 0)
(6.02319 -0.036991 0)
(6.60778 -0.0377962 0)
(7.17956 -0.0155124 0)
(7.65134 -5.72027e-05 0)
(7.98442 -0.0159938 0)
(8.34899 -0.0413773 0)
(8.78389 -0.0808744 0)
(9.17435 -0.15713 0)
(9.45328 -0.259838 0)
(9.73627 -0.307167 0)
(10.15 -0.234657 0)
(10.4925 -0.183479 0)
(10.48 -0.309774 0)
(10.3589 -0.434505 0)
(10.4512 -0.365028 0)
(10.2961 -0.381434 0)
(9.94758 -0.51109 0)
(9.86987 -0.502114 0)
(9.88727 -0.442784 0)
(9.83013 -0.430041 0)
(9.75514 -0.414605 0)
(9.69289 -0.378157 0)
(9.66427 -0.32758 0)
(0.547771 0.000682021 0)
(1.59577 -0.0082398 0)
(2.4885 -0.0322296 0)
(3.21538 -0.0544882 0)
(3.91876 -0.0475953 0)
(4.64197 -0.0316217 0)
(5.37051 -0.0284755 0)
(6.06538 -0.0363312 0)
(6.66028 -0.0524715 0)
(7.22271 -0.0508898 0)
(7.74689 -0.0360955 0)
(8.11122 -0.0434215 0)
(8.42852 -0.055545 0)
(8.84558 -0.0648385 0)
(9.28274 -0.111691 0)
(9.61743 -0.214982 0)
(9.86482 -0.327092 0)
(10.1801 -0.341449 0)
(10.5871 -0.253069 0)
(10.7695 -0.275314 0)
(10.6065 -0.459306 0)
(10.5524 -0.509307 0)
(10.5534 -0.453005 0)
(10.2315 -0.555529 0)
(10.0037 -0.625989 0)
(10.0079 -0.568426 0)
(9.9807 -0.529462 0)
(9.88883 -0.524171 0)
(9.80657 -0.496925 0)
(9.74871 -0.450701 0)
(9.76329 -0.37195 0)
(0.563742 0.000666171 0)
(1.65337 -0.00738973 0)
(2.59209 -0.028591 0)
(3.311 -0.0620415 0)
(3.93862 -0.07216 0)
(4.61554 -0.0463702 0)
(5.33484 -0.0221346 0)
(6.05922 -0.0194359 0)
(6.69501 -0.0411915 0)
(7.25375 -0.0629276 0)
(7.80806 -0.0618992 0)
(8.24335 -0.0714139 0)
(8.53844 -0.0928297 0)
(8.90104 -0.0849769 0)
(9.35514 -0.0855392 0)
(9.75493 -0.154009 0)
(10.0253 -0.28206 0)
(10.2604 -0.384068 0)
(10.6002 -0.357709 0)
(10.938 -0.287055 0)
(10.9165 -0.405139 0)
(10.7012 -0.585981 0)
(10.7029 -0.565776 0)
(10.5267 -0.591546 0)
(10.2037 -0.710233 0)
(10.1182 -0.705866 0)
(10.1196 -0.642951 0)
(10.0354 -0.626165 0)
(9.92551 -0.613394 0)
(9.8433 -0.573134 0)
(9.81767 -0.505189 0)
(9.87685 -0.40407 0)
(0.586094 0.000217879 0)
(1.71249 -0.00914408 0)
(2.68969 -0.026514 0)
(3.43577 -0.0599241 0)
(4.00797 -0.0917585 0)
(4.59758 -0.079658 0)
(5.27398 -0.0346828 0)
(5.99879 -0.00177132 0)
(6.6836 -0.00743721 0)
(7.2627 -0.0431902 0)
(7.82499 -0.0641793 0)
(8.33861 -0.0787347 0)
(8.67304 -0.119031 0)
(8.96952 -0.133566 0)
(9.39611 -0.101777 0)
(9.84799 -0.109718 0)
(10.1773 -0.208008 0)
(10.3911 -0.348149 0)
(10.6245 -0.421547 0)
(10.9659 -0.360656 0)
(11.1609 -0.351004 0)
(10.9516 -0.553875 0)
(10.8008 -0.666411 0)
(10.7556 -0.648729 0)
(10.4625 -0.752555 0)
(10.2533 -0.824282 0)
(10.2388 -0.775197 0)
(10.187 -0.732812 0)
(10.0598 -0.725601 0)
(9.94846 -0.696451 0)
(9.88703 -0.638526 0)
(9.91639 -0.541951 0)
(10.0034 -0.439045 0)
(0.616853 -0.0003071 0)
(1.78451 -0.0126549 0)
(2.78594 -0.030421 0)
(3.5698 -0.0570386 0)
(4.13549 -0.0985356 0)
(4.63654 -0.117032 0)
(5.22837 -0.078384 0)
(5.91391 -0.0136499 0)
(6.62126 0.0237874 0)
(7.23859 0.00393103 0)
(7.80052 -0.0359951 0)
(8.3669 -0.0601542 0)
(8.79277 -0.107682 0)
(9.06686 -0.166582 0)
(9.42035 -0.155417 0)
(9.88858 -0.109651 0)
(10.292 -0.141926 0)
(10.5358 -0.268722 0)
(10.7071 -0.403278 0)
(10.9435 -0.43408 0)
(11.2439 -0.363324 0)
(11.2322 -0.455326 0)
(10.9493 -0.683117 0)
(10.8917 -0.721739 0)
(10.7244 -0.775606 0)
(10.4417 -0.897117 0)
(10.3469 -0.906306 0)
(10.3242 -0.85079 0)
(10.2091 -0.833948 0)
(10.0662 -0.819612 0)
(9.97277 -0.77084 0)
(9.9614 -0.68695 0)
(10.0445 -0.569745 0)
(10.1423 -0.48322 0)
(0.653962 -0.000670508 0)
(1.87304 -0.0162445 0)
(2.89252 -0.0383522 0)
(3.70017 -0.0609427 0)
(4.29579 -0.0970888 0)
(4.75326 -0.139587 0)
(5.24197 -0.136683 0)
(5.84801 -0.0698057 0)
(6.53358 0.0135444 0)
(7.18469 0.0469347 0)
(7.74867 0.0178323 0)
(8.32588 -0.0174363 0)
(8.84996 -0.060774 0)
(9.17712 -0.145124 0)
(9.45716 -0.198588 0)
(9.88103 -0.156747 0)
(10.3463 -0.115431 0)
(10.6632 -0.184243 0)
(10.8268 -0.328413 0)
(10.9697 -0.440363 0)
(11.2089 -0.423938 0)
(11.4004 -0.389104 0)
(11.1904 -0.589581 0)
(10.9861 -0.765718 0)
(10.9297 -0.798442 0)
(10.6732 -0.922823 0)
(10.4747 -1.00687 0)
(10.4323 -0.974061 0)
(10.3556 -0.938055 0)
(10.1976 -0.93544 0)
(10.0702 -0.901624 0)
(10.0204 -0.83007 0)
(10.0743 -0.717174 0)
(10.1877 -0.597921 0)
(10.3038 -0.525393 0)
(0.694416 -0.0010755 0)
(1.97206 -0.0182656 0)
(3.01371 -0.0458119 0)
(3.82697 -0.0708577 0)
(4.4537 -0.0984366 0)
(4.92384 -0.143431 0)
(5.33987 -0.179701 0)
(5.84039 -0.150273 0)
(6.45789 -0.0546411 0)
(7.11306 0.0403019 0)
(7.6929 0.0655802 0)
(8.24587 0.0398186 0)
(8.8232 0.00538955 0)
(9.2537 -0.073124 0)
(9.52162 -0.178581 0)
(9.85661 -0.205813 0)
(10.3272 -0.141769 0)
(10.7403 -0.126204 0)
(10.9535 -0.234958 0)
(11.0562 -0.381112 0)
(11.1861 -0.455875 0)
(11.4096 -0.406358 0)
(11.4273 -0.461309 0)
(11.1396 -0.716675 0)
(11.0538 -0.821849 0)
(10.9056 -0.914892 0)
(10.6452 -1.05625 0)
(10.5274 -1.0851 0)
(10.4749 -1.04189 0)
(10.3353 -1.03386 0)
(10.1739 -1.02504 0)
(10.0926 -0.966725 0)
(10.1082 -0.86895 0)
(10.2136 -0.736309 0)
(10.3414 -0.627845 0)
(10.5139 -0.546501 0)
(0.735243 -0.00153268 0)
(2.07237 -0.0188316 0)
(3.14216 -0.0490209 0)
(3.95161 -0.0796977 0)
(4.5886 -0.104597 0)
(5.09612 -0.139966 0)
(5.5038 -0.192491 0)
(5.91485 -0.215817 0)
(6.43195 -0.156726 0)
(7.04419 -0.0362999 0)
(7.63838 0.0612712 0)
(8.17376 0.0848548 0)
(8.73876 0.069996 0)
(9.26083 0.0197932 0)
(9.58651 -0.0946812 0)
(9.85593 -0.195444 0)
(10.2569 -0.187468 0)
(10.7308 -0.118435 0)
(11.0529 -0.147871 0)
(11.1712 -0.290004 0)
(11.2369 -0.423335 0)
(11.3681 -0.452428 0)
(11.5337 -0.409592 0)
(11.3758 -0.579117 0)
(11.1523 -0.806727 0)
(11.0864 -0.894617 0)
(10.8496 -1.04921 0)
(10.6419 -1.15794 0)
(10.5644 -1.14571 0)
(10.4634 -1.11935 0)
(10.2868 -1.12805 0)
(10.1677 -1.09515 0)
(10.1543 -1.01251 0)
(10.2334 -0.890736 0)
(10.3667 -0.753925 0)
(10.5258 -0.651963 0)
(10.7993 -0.529487 0)
(0.773537 -0.00167889 0)
(2.16552 -0.0182152 0)
(3.26596 -0.0475502 0)
(4.06921 -0.0818327 0)
(4.69443 -0.109138 0)
(5.22714 -0.135863 0)
(5.67497 -0.182544 0)
(6.05728 -0.239957 0)
(6.47914 -0.245031 0)
(7.0096 -0.156126 0)
(7.58655 -0.0199643 0)
(8.12136 0.0777019 0)
(8.65244 0.109948 0)
(9.20557 0.0996816 0)
(9.62061 0.0183036 0)
(9.87883 -0.113794 0)
(10.1924 -0.187605 0)
(10.6383 -0.147967 0)
(11.0698 -0.0969265 0)
(11.2824 -0.182519 0)
(11.333 -0.344197 0)
(11.3845 -0.452674 0)
(11.5258 -0.441314 0)
(11.5827 -0.462039 0)
(11.3252 -0.709589 0)
(11.1972 -0.870669 0)
(11.0512 -0.999357 0)
(10.7918 -1.17043 0)
(10.6466 -1.22933 0)
(10.5661 -1.20484 0)
(10.4101 -1.20786 0)
(10.2494 -1.2087 0)
(10.205 -1.145 0)
(10.2598 -1.04115 0)
(10.3835 -0.904705 0)
(10.5438 -0.773004 0)
(10.7739 -0.654536 0)
(11.1408 -0.474189 0)
(0.807352 -0.00164867 0)
(2.24515 -0.016251 0)
(3.37524 -0.0425625 0)
(4.17388 -0.0770147 0)
(4.77128 -0.10652 0)
(5.30014 -0.128929 0)
(5.79285 -0.161536 0)
(6.21122 -0.22312 0)
(6.58888 -0.281204 0)
(7.03083 -0.26441 0)
(7.55603 -0.152034 0)
(8.07955 -0.00782108 0)
(8.58928 0.0961395 0)
(9.12783 0.139652 0)
(9.61423 0.116594 0)
(9.91217 0.00429771 0)
(10.1599 -0.118322 0)
(10.5247 -0.154459 0)
(10.9809 -0.0954927 0)
(11.3318 -0.086131 0)
(11.4403 -0.227084 0)
(11.4539 -0.3918 0)
(11.5163 -0.466711 0)
(11.664 -0.441749 0)
(11.568 -0.57045 0)
(11.3082 -0.816368 0)
(11.2009 -0.93969 0)
(10.9669 -1.118 0)
(10.7454 -1.26149 0)
(10.6431 -1.28209 0)
(10.5275 -1.2754 0)
(10.3516 -1.29797 0)
(10.2604 -1.26897 0)
(10.2916 -1.17841 0)
(10.3982 -1.05793 0)
(10.5592 -0.917201 0)
(10.7707 -0.784233 0)
(11.0803 -0.625437 0)
(11.4859 -0.40075 0)
(0.836796 -0.00164207 0)
(2.30838 -0.0137524 0)
(3.4627 -0.0350024 0)
(4.26431 -0.0670527 0)
(4.82713 -0.0980387 0)
(5.32164 -0.117477 0)
(5.82856 -0.135758 0)
(6.3089 -0.180419 0)
(6.71085 -0.257676 0)
(7.10093 -0.311795 0)
(7.56161 -0.27416 0)
(8.05406 -0.148362 0)
(8.54039 0.00504145 0)
(9.05743 0.12155 0)
(9.57335 0.165626 0)
(9.94612 0.113579 0)
(10.1629 -0.0120712 0)
(10.4407 -0.102039 0)
(10.8395 -0.100682 0)
(11.2695 -0.0411766 0)
(11.5153 -0.0916236 0)
(11.5404 -0.274901 0)
(11.5466 -0.426126 0)
(11.6573 -0.462372 0)
(11.7534 -0.479989 0)
(11.503 -0.706847 0)
(11.296 -0.891039 0)
(11.1318 -1.02793 0)
(10.8684 -1.22314 0)
(10.7092 -1.32089 0)
(10.6176 -1.33185 0)
(10.4676 -1.35914 0)
(10.3334 -1.37481 0)
(10.3283 -1.30977 0)
(10.4146 -1.19977 0)
(10.5668 -1.06644 0)
(10.7762 -0.925759 0)
(11.0484 -0.775171 0)
(11.4059 -0.572459 0)
(11.816 -0.328503 0)
(0.86396 -0.0018516 0)
(2.35636 -0.0118163 0)
(3.52483 -0.0267525 0)
(4.33865 -0.0531357 0)
(4.87755 -0.0858247 0)
(5.31832 -0.106069 0)
(5.79393 -0.111739 0)
(6.31234 -0.129346 0)
(6.78022 -0.192079 0)
(7.1788 -0.282372 0)
(7.59565 -0.328672 0)
(8.05308 -0.278354 0)
(8.5039 -0.143484 0)
(8.99137 0.0264435 0)
(9.51445 0.151543 0)
(9.95645 0.177876 0)
(10.2064 0.0941047 0)
(10.3997 -0.0175991 0)
(10.7178 -0.0645097 0)
(11.1252 -0.0336148 0)
(11.4953 0.00387661 0)
(11.625 -0.114229 0)
(11.5972 -0.317444 0)
(11.6388 -0.436623 0)
(11.8029 -0.448383 0)
(11.7329 -0.573347 0)
(11.412 -0.823924 0)
(11.2457 -0.95066 0)
(11.0079 -1.1257 0)
(10.7799 -1.29677 0)
(10.6745 -1.35847 0)
(10.5695 -1.39154 0)
(10.4261 -1.44264 0)
(10.3743 -1.4284 0)
(10.4345 -1.33532 0)
(10.5685 -1.20838 0)
(10.7759 -1.06683 0)
(11.0347 -0.922975 0)
(11.3488 -0.744264 0)
(11.7353 -0.508988 0)
(12.1298 -0.26921 0)
(0.890164 -0.00209512 0)
(2.39302 -0.0108035 0)
(3.5631 -0.020122 0)
(4.3916 -0.0379264 0)
(4.93228 -0.0689386 0)
(5.32578 -0.0967955 0)
(5.73499 -0.0997701 0)
(6.23471 -0.0900446 0)
(6.7591 -0.113341 0)
(7.21177 -0.195738 0)
(7.62493 -0.293233 0)
(8.06499 -0.333273 0)
(8.48941 -0.279736 0)
(8.92465 -0.129515 0)
(9.43739 0.0600121 0)
(9.93082 0.178322 0)
(10.2585 0.17044 0)
(10.4182 0.070522 0)
(10.6368 -0.00275731 0)
(10.9819 -0.0102275 0)
(11.3738 0.037193 0)
(11.653 0.0297704 0)
(11.6711 -0.150399 0)
(11.6376 -0.344241 0)
(11.7617 -0.412946 0)
(11.8689 -0.461331 0)
(11.5933 -0.699341 0)
(11.3188 -0.894466 0)
(11.1357 -1.01736 0)
(10.8698 -1.21201 0)
(10.7117 -1.33746 0)
(10.6343 -1.39133 0)
(10.5206 -1.46042 0)
(10.4316 -1.50683 0)
(10.4551 -1.45756 0)
(10.5671 -1.3436 0)
(10.7652 -1.20132 0)
(11.0235 -1.05858 0)
(11.3124 -0.905643 0)
(11.6645 -0.696412 0)
(12.0648 -0.447295 0)
(12.4184 -0.230627 0)
(0.913929 -0.0021525 0)
(2.42129 -0.0098492 0)
(3.58264 -0.0159513 0)
(4.42017 -0.0252928 0)
(4.9843 -0.0486597 0)
(5.36603 -0.0836568 0)
(5.70656 -0.100706 0)
(6.13448 -0.0804956 0)
(6.66048 -0.0573451 0)
(7.17212 -0.0920203 0)
(7.61547 -0.190288 0)
(8.05705 -0.289178 0)
(8.48891 -0.331582 0)
(8.87507 -0.274897 0)
(9.33587 -0.0978493 0)
(9.8613 0.10238 0)
(10.2777 0.193012 0)
(10.4824 0.146742 0)
(10.6101 0.0577492 0)
(10.8739 0.0326132 0)
(11.226 0.054483 0)
(11.5787 0.100973 0)
(11.7394 0.0282431 0)
(11.6802 -0.191269 0)
(11.7045 -0.340408 0)
(11.8732 -0.373802 0)
(11.7693 -0.531894 0)
(11.4135 -0.801757 0)
(11.2178 -0.936339 0)
(10.9829 -1.09686 0)
(10.7556 -1.27147 0)
(10.6642 -1.35861 0)
(10.5925 -1.43249 0)
(10.4963 -1.52315 0)
(10.4743 -1.54085 0)
(10.5583 -1.46139 0)
(10.7424 -1.32839 0)
(11.0051 -1.18149 0)
(11.2866 -1.04335 0)
(11.6068 -0.87254 0)
(11.9967 -0.63865 0)
(12.3745 -0.400928 0)
(12.6931 -0.206745 0)
(0.93151 -0.00197956 0)
(2.43995 -0.00767896 0)
(3.58836 -0.012493 0)
(4.42727 -0.0167659 0)
(5.01897 -0.0301036 0)
(5.43021 -0.0626558 0)
(5.73994 -0.0999985 0)
(6.08007 -0.0990063 0)
(6.54187 -0.0519419 0)
(7.07233 -0.0206564 0)
(7.55989 -0.068418 0)
(8.009 -0.174616 0)
(8.46731 -0.275073 0)
(8.85382 -0.327855 0)
(9.23444 -0.254522 0)
(9.73931 -0.0461983 0)
(10.2367 0.143894 0)
(10.5413 0.18979 0)
(10.6517 0.117607 0)
(10.8031 0.0663928 0)
(11.1037 0.0832694 0)
(11.4455 0.123485 0)
(11.7287 0.144418 0)
(11.7665 -0.000863924 0)
(11.6923 -0.221722 0)
(11.8035 -0.29927 0)
(11.8585 -0.371236 0)
(11.549 -0.633889 0)
(11.2683 -0.853565 0)
(11.0883 -0.98707 0)
(10.8334 -1.17489 0)
(10.685 -1.30424 0)
(10.6319 -1.37845 0)
(10.5577 -1.48018 0)
(10.4981 -1.56303 0)
(10.5408 -1.54282 0)
(10.7051 -1.43669 0)
(10.9713 -1.29412 0)
(11.2634 -1.15855 0)
(11.5629 -1.01984 0)
(11.9288 -0.823696 0)
(12.3227 -0.585625 0)
(12.6584 -0.372811 0)
(12.9766 -0.179713 0)
(0.939245 -0.00151402 0)
(2.44351 -0.00392144 0)
(3.58153 -0.00705582 0)
(4.41676 -0.00967657 0)
(5.02971 -0.0160511 0)
(5.48782 -0.0384832 0)
(5.82338 -0.0838491 0)
(6.10917 -0.11891 0)
(6.47305 -0.0928788 0)
(6.95782 -0.0197726 0)
(7.47137 0.0138391 0)
(7.93721 -0.0440552 0)
(8.40161 -0.149867 0)
(8.83529 -0.259897 0)
(9.17088 -0.31912 0)
(9.59051 -0.210391 0)
(10.1196 0.0175509 0)
(10.5429 0.173386 0)
(10.7286 0.168961 0)
(10.7984 0.0964618 0)
(11.0033 0.0979212 0)
(11.3183 0.143369 0)
(11.631 0.188053 0)
(11.8178 0.15779 0)
(11.7587 -0.0476073 0)
(11.7337 -0.219477 0)
(11.8513 -0.252372 0)
(11.6797 -0.431189 0)
(11.3382 -0.713126 0)
(11.154 -0.884153 0)
(10.939 -1.05978 0)
(10.7282 -1.23395 0)
(10.6522 -1.32233 0)
(10.6044 -1.40733 0)
(10.5327 -1.52191 0)
(10.5259 -1.57351 0)
(10.6583 -1.5149 0)
(10.9204 -1.391 0)
(11.2315 -1.25787 0)
(11.5317 -1.13711 0)
(11.8688 -0.982913 0)
(12.2608 -0.768972 0)
(12.6209 -0.548621 0)
(12.9335 -0.348426 0)
(13.2654 -0.141858 0)
(0.935386 -0.00092427 0)
(2.42577 0.00111421 0)
(3.55828 0.001712 0)
(4.38944 -0.00028348 0)
(5.01698 -0.00385104 0)
(5.51456 -0.0168114 0)
(5.91202 -0.0541087 0)
(6.20724 -0.113196 0)
(6.49552 -0.139064 0)
(6.88705 -0.0836383 0)
(7.37525 0.0109172 0)
(7.86247 0.0427287 0)
(8.3185 -0.0182903 0)
(8.78173 -0.122566 0)
(9.14881 -0.25063 0)
(9.47031 -0.296501 0)
(9.94803 -0.143604 0)
(10.4571 0.0802662 0)
(10.7749 0.182903 0)
(10.864 0.137167 0)
(10.9489 0.0943505 0)
(11.2043 0.147626 0)
(11.5081 0.207714 0)
(11.7716 0.239069 0)
(11.848 0.140264 0)
(11.7351 -0.0899858 0)
(11.7799 -0.177287 0)
(11.7596 -0.2538 0)
(11.4448 -0.517934 0)
(11.1994 -0.755862 0)
(11.0328 -0.931854 0)
(10.8049 -1.13576 0)
(10.6742 -1.26771 0)
(10.6346 -1.33924 0)
(10.5752 -1.44371 0)
(10.5299 -1.5484 0)
(10.6165 -1.5566 0)
(10.8623 -1.46779 0)
(11.1866 -1.34432 0)
(11.5041 -1.23109 0)
(11.8242 -1.11026 0)
(12.1956 -0.934199 0)
(12.5732 -0.722758 0)
(12.896 -0.521597 0)
(13.2074 -0.315494 0)
(13.5411 -0.0980927 0)
(0.919408 -0.000363692 0)
(2.3831 0.0065302 0)
(3.5117 0.013402 0)
(4.34393 0.0135443 0)
(4.98057 0.0110008 0)
(5.50506 0.00279594 0)
(5.96191 -0.0209821 0)
(6.31995 -0.0785316 0)
(6.59544 -0.147521 0)
(6.90011 -0.157667 0)
(7.31057 -0.0727668 0)
(7.79003 0.0373824 0)
(8.25255 0.066259 0)
(8.70407 0.00837871 0)
(9.1249 -0.102937 0)
(9.42037 -0.244986 0)
(9.77904 -0.251626 0)
(10.2956 -0.0640687 0)
(10.7402 0.128753 0)
(10.9429 0.169381 0)
(10.9782 0.105296 0)
(11.1131 0.115634 0)
(11.3915 0.208175 0)
(11.6638 0.271124 0)
(11.8605 0.270605 0)
(11.8145 0.0970257 0)
(11.7142 -0.0963541 0)
(11.7609 -0.134051 0)
(11.5618 -0.314227 0)
(11.2677 -0.586747 0)
(11.0968 -0.79101 0)
(10.8971 -1.00071 0)
(10.7115 -1.18965 0)
(10.6506 -1.2824 0)
(10.6153 -1.36354 0)
(10.5596 -1.48227 0)
(10.5962 -1.55553 0)
(10.8096 -1.52119 0)
(11.1355 -1.41963 0)
(11.4713 -1.31003 0)
(11.7908 -1.20758 0)
(12.1372 -1.07161 0)
(12.5147 -0.883946 0)
(12.8571 -0.688234 0)
(13.1585 -0.493267 0)
(13.4721 -0.273781 0)
(13.7962 -0.0536721 0)
(0.891437 0.000313548 0)
(2.31507 0.0118524 0)
(3.43584 0.0262366 0)
(4.2768 0.0320126 0)
(4.92114 0.030577 0)
(5.46223 0.0248182 0)
(5.95727 0.010525 0)
(6.39078 -0.0299484 0)
(6.71506 -0.108932 0)
(6.98833 -0.181788 0)
(7.31223 -0.172551 0)
(7.73396 -0.0608019 0)
(8.19977 0.0588455 0)
(8.64434 0.0867679 0)
(9.07515 0.031227 0)
(9.41728 -0.097009 0)
(9.68044 -0.232058 0)
(10.1044 -0.184576 0)
(10.6174 0.0136084 0)
(10.967 0.15302 0)
(11.0665 0.135872 0)
(11.0959 0.0844155 0)
(11.2844 0.157303 0)
(11.5514 0.271242 0)
(11.7842 0.32995 0)
(11.8786 0.272593 0)
(11.7326 0.0489278 0)
(11.6984 -0.060863 0)
(11.6443 -0.141581 0)
(11.3681 -0.394113 0)
(11.1543 -0.634228 0)
(10.9812 -0.842928 0)
(10.7715 -1.06674 0)
(10.6599 -1.21367 0)
(10.6387 -1.29249 0)
(10.6037 -1.39991 0)
(10.6072 -1.51397 0)
(10.7733 -1.54278 0)
(11.0851 -1.47968 0)
(11.4325 -1.38065 0)
(11.7601 -1.2832 0)
(12.088 -1.17654 0)
(12.4502 -1.02328 0)
(12.8094 -0.839628 0)
(13.1179 -0.658913 0)
(13.4083 -0.458371 0)
(13.7223 -0.226048 0)
(14.0297 -0.0106077 0)
(0.852091 0.00107389 0)
(2.22384 0.0170227 0)
(3.32892 0.0386248 0)
(4.1839 0.0528511 0)
(4.84158 0.0549013 0)
(5.39271 0.0506899 0)
(5.90545 0.0419855 0)
(6.39386 0.0191172 0)
(6.79409 -0.0430784 0)
(7.09724 -0.140074 0)
(7.3798 -0.21173 0)
(7.7208 -0.181901 0)
(8.15093 -0.0468511 0)
(8.6035 0.0774014 0)
(9.02913 0.104937 0)
(9.40671 0.0434261 0)
(9.66937 -0.10108 0)
(9.95635 -0.201271 0)
(10.4353 -0.103689 0)
(10.9029 0.0761539 0)
(11.1425 0.147998 0)
(11.1696 0.0905286 0)
(11.2292 0.081654 0)
(11.4491 0.208762 0)
(11.6863 0.331834 0)
(11.8585 0.372323 0)
(11.8143 0.237179 0)
(11.6604 0.0287607 0)
(11.6575 -0.0292559 0)
(11.4795 -0.202827 0)
(11.2296 -0.462647 0)
(11.0517 -0.681248 0)
(10.8501 -0.908504 0)
(10.6832 -1.11052 0)
(10.6436 -1.21984 0)
(10.6405 -1.31433 0)
(10.6422 -1.4419 0)
(10.7611 -1.52637 0)
(11.0399 -1.51409 0)
(11.3872 -1.43923 0)
(11.7248 -1.34709 0)
(12.0449 -1.25341 0)
(12.3842 -1.13326 0)
(12.7469 -0.971331 0)
(13.0754 -0.801172 0)
(13.3559 -0.628244 0)
(13.6454 -0.414748 0)
(13.9541 -0.175499 0)
(14.2421 0.0323112 0)
(0.802646 0.00170112 0)
(2.11281 0.0217 0)
(3.19433 0.0496844 0)
(4.06287 0.0729889 0)
(4.74471 0.0816955 0)
(5.30753 0.0794395 0)
(5.82393 0.0734922 0)
(6.33708 0.0632281 0)
(6.80318 0.0267544 0)
(7.16916 -0.0572624 0)
(7.46707 -0.167133 0)
(7.76186 -0.235128 0)
(8.12005 -0.183101 0)
(8.55735 -0.0294369 0)
(8.99761 0.095378 0)
(9.38709 0.117155 0)
(9.68834 0.04093 0)
(9.9091 -0.10323 0)
(10.2576 -0.148702 0)
(10.7556 -0.021182 0)
(11.1453 0.114461 0)
(11.2778 0.11405 0)
(11.2733 0.0442397 0)
(11.38 0.0948068 0)
(11.6056 0.258937 0)
(11.7967 0.380632 0)
(11.8674 0.37629 0)
(11.718 0.179586 0)
(11.6327 0.0368201 0)
(11.5693 -0.0513013 0)
(11.3298 -0.284924 0)
(11.1216 -0.521157 0)
(10.9322 -0.741756 0)
(10.7369 -0.971105 0)
(10.6495 -1.13161 0)
(10.6607 -1.2292 0)
(10.6829 -1.3505 0)
(10.7716 -1.47091 0)
(11.0056 -1.51377 0)
(11.3379 -1.47558 0)
(11.68 -1.3996 0)
(12.0012 -1.3124 0)
(12.3204 -1.21321 0)
(12.6692 -1.078 0)
(13.0161 -0.919253 0)
(13.3079 -0.76536 0)
(13.5748 -0.590127 0)
(13.8695 -0.362543 0)
(14.1635 -0.125098 0)
(14.4385 0.0787074 0)
(0.745111 0.00220743 0)
(1.98602 0.0255664 0)
(3.03895 0.0587448 0)
(3.91589 0.0901773 0)
(4.63201 0.107787 0)
(5.2173 0.108871 0)
(5.73531 0.103643 0)
(6.24681 0.0999325 0)
(6.7493 0.08611 0)
(7.17732 0.0330781 0)
(7.52156 -0.0687178 0)
(7.82451 -0.187951 0)
(8.12922 -0.250121 0)
(8.5065 -0.174344 0)
(8.95231 -0.00676415 0)
(9.37185 0.111193 0)
(9.70083 0.118202 0)
(9.93258 0.0275656 0)
(10.1643 -0.0919298 0)
(10.575 -0.0790745 0)
(11.0505 0.0518121 0)
(11.3412 0.12215 0)
(11.3889 0.0588793 0)
(11.3949 0.00587906 0)
(11.5494 0.116217 0)
(11.7519 0.296119 0)
(11.8725 0.399223 0)
(11.8312 0.329994 0)
(11.665 0.123627 0)
(11.6175 0.0291426 0)
(11.4527 -0.127948 0)
(11.2106 -0.367369 0)
(11.0128 -0.585723 0)
(10.8141 -0.813403 0)
(10.6781 -1.01794 0)
(10.673 -1.14328 0)
(10.7182 -1.25415 0)
(10.7973 -1.38501 0)
(10.9862 -1.47466 0)
(11.2895 -1.48101 0)
(11.627 -1.43226 0)
(11.9502 -1.35819 0)
(12.2582 -1.27075 0)
(12.5833 -1.15809 0)
(12.9322 -1.01388 0)
(13.2477 -0.868772 0)
(13.5106 -0.726512 0)
(13.782 -0.540597 0)
(14.075 -0.305937 0)
(14.3517 -0.074118 0)
(14.622 0.130836 0)
(0.681186 0.00258895 0)
(1.84756 0.0286372 0)
(2.87073 0.0657355 0)
(3.75019 0.103051 0)
(4.50372 0.130342 0)
(5.12839 0.137069 0)
(5.65822 0.13124 0)