/*--------------------------------*- C++ -*----------------------------------*\
| =========                 |                                                 |
| \\      /  F ield         | OpenFOAM: The Open Source CFD Toolbox           |
|  \\    /   O peration     | Version:  2412                                  |
|   \\  /    A nd           | Website:  www.openfoam.com                      |
|    \\/     M anipulation  |                                                 |
\*---------------------------------------------------------------------------*/
FoamFile
{
    version     2.0;
    format      ascii;
    arch        "LSB;label=32;scalar=64";
    class       volScalarField;
    location    "0.1";
    object      rho;
}
// * * * * * * * * * * * * * * * * * * * * * * * * * * * * * * * * * * * * * //

dimensions      [1 -3 0 0 0 0 0];

internalField   nonuniform List<scalar> 
12008
(
1.47713509
1.476974189
1.476655141
1.476177525
1.475542822
1.474752968
1.473810352
1.472717861
1.471478973
1.470097849
1.468579437
1.466929558
1.465154981
1.463263466
1.461263798
1.459165799
1.456980325
1.454719249
1.452395432
1.45002269
1.447615757
1.445190251
1.442762642
1.440350229
1.437971119
1.435644206
1.433389145
1.431226312
1.429176722
1.427261922
1.425503794
1.423924365
1.422545452
1.421388213
1.420472633
1.419816907
1.419436709
1.419344345
1.41954441
1.420048837
1.420857852
1.421963333
1.423353055
1.4250091
1.426908039
1.429021384
1.4313163
1.433756511
1.436303334
1.438916774
1.4415566
1.444183348
1.446759186
1.4492486
1.451618899
1.453840511
1.455887113
1.457735598
1.459365946
1.460761019
1.461906324
1.462789791
1.463401609
1.463733641
1.463782491
1.463545067
1.463020965
1.46221293
1.461127131
1.459773591
1.458166593
1.456324995
1.454272404
1.452037141
1.449651958
1.447153493
1.444581444
1.441977531
1.43938429
1.436843794
1.434396409
1.432079667
1.429927352
1.427968827
1.426228653
1.424726455
1.423477013
1.42249053
1.42177301
1.421327795
1.421152806
1.421239146
1.421582624
1.422174607
1.423004399
1.424059598
1.425326359
1.426789623
1.428433329
1.430240604
1.432193927
1.434275301
1.436466374
1.438748553
1.441103126
1.443511378
1.445954717
1.448414806
1.45087371
1.453314062
1.455719249
1.458073606
1.46036261
1.462573079
1.464693357
1.46671347
1.468625244
1.470422383
1.472100488
1.473657033
1.475091283
1.476404165
1.477598103
1.478676826
1.479645145
1.480508735
1.481273902
1.48194737
1.482536071
1.483046963
1.483486868
1.483862324
1.484179474
1.484443969
1.48466089
1.48483469
1.484969151
1.485067342
1.485131593
1.485163427
1.476997432
1.47683375
1.476508784
1.476022365
1.475376131
1.474572199
1.473613136
1.472502009
1.471242476
1.469838891
1.468296405
1.466621056
1.464819833
1.46290073
1.460872765
1.458745986
1.45653146
1.454241242
1.451888339
1.449486668
1.447051011
1.444596979
1.442140977
1.439700192
1.437292573
1.434936833
1.43265244
1.430459597
1.428379207
1.426432785
1.424642333
1.423030073
1.421618156
1.420428272
1.419481126
1.418795832
1.418389196
1.418274982
1.418455046
1.418946014
1.419751208
1.420860578
1.422262625
1.423939658
1.42586804
1.42801867
1.430357731
1.432847663
1.43544828
1.438117971
1.440814876
1.443497982
1.446128063
1.44866842
1.451085409
1.453348739
1.455431575
1.457310475
1.458965216
1.46037854
1.46153589
1.462425156
1.463036498
1.463360998
1.463396695
1.463139806
1.462589962
1.461750103
1.460626709
1.459230265
1.457575693
1.455682673
1.45357581
1.451284575
1.448842969
1.446288911
1.443663329
1.441009039
1.438369461
1.435787288
1.43330322
1.430954849
1.428775794
1.426795109
1.425036979
1.423520673
1.422260701
1.421267102
1.420545809
1.420101512
1.419931769
1.420025425
1.420380507
1.420988409
1.421838398
1.422917935
1.424212927
1.425707966
1.42738657
1.429231392
1.431224423
1.433347151
1.435580729
1.43790612
1.440304224
1.442755998
1.445242581
1.447745422
1.450246422
1.452728088
1.455173699
1.457567491
1.459894852
1.46214251
1.464298709
1.466353372
1.468298217
1.47012684
1.471834741
1.473419307
1.47487973
1.47621689
1.477433187
1.478532351
1.479519223
1.480399524
1.481179634
1.48186636
1.482466735
1.482987824
1.483436555
1.483819579
1.484143143
1.484413
1.484634324
1.484811652
1.484948837
1.485049014
1.485114602
1.485147361
1.476723134
1.476553567
1.476216813
1.475712821
1.475043487
1.474211207
1.47321882
1.472069657
1.470767643
1.469317413
1.467724432
1.465995087
1.464136763
1.462157884
1.460067937
1.45787746
1.455598021
1.453242171
1.450823387
1.448356012
1.445855191
1.44333682
1.440817501
1.438314518
1.435845829
1.433430073
1.431086588
1.428835428
1.42669736
1.424693836
1.422846903
1.421179028
1.419712824
1.418470664
1.417474222
1.416743886
1.416298028
1.416152212
1.416306991
1.416781336
1.417586458
1.418709309
1.420139426
1.42185953
1.423845715
1.426067926
1.428490742
1.43107444
1.433776262
1.436551776
1.439356242
1.442145873
1.444878912
1.447516475
1.450023119
1.452367156
1.454520711
1.4564596
1.45816308
1.459613527
1.460796104
1.461698464
1.462310542
1.462622054
1.462633448
1.462339473
1.461739992
1.460838318
1.459641587
1.458161266
1.456413614
1.454420013
1.452207107
1.449806668
1.447255156
1.444592951
1.441863291
1.439110968
1.436380919
1.4337168
1.431159707
1.428747125
1.426512189
1.424483264
1.422683836
1.421132625
1.419843861
1.418827629
1.418090208
1.417638869
1.417470756
1.417571931
1.417943929
1.418578586
1.419465287
1.420591304
1.421942057
1.423501387
1.425251844
1.427174962
1.42925152
1.431461777
1.433785683
1.436203069
1.438693816
1.441238003
1.443816037
1.446408789
1.448997717
1.451565004
1.454093703
1.45656789
1.45897283
1.461295149
1.463522992
1.465646174
1.467656299
1.469546843
1.471313188
1.472952615
1.47446423
1.475848857
1.477108879
1.478248043
1.479271252
1.480184327
1.480993781
1.481706585
1.482329957
1.482871161
1.483337334
1.483735333
1.484071611
1.484352113
1.484582191
1.484766544
1.484909159
1.48501328
1.485081396
1.485115462
1.476308382
1.476129831
1.475775034
1.475244108
1.47453929
1.473663332
1.472619407
1.471411162
1.470042842
1.468519434
1.466846811
1.465031844
1.463082487
1.461007826
1.458818096
1.456524662
1.454139977
1.451677512
1.449151674
1.446577705
1.443971589
1.441349963
1.438730043
1.436129583
1.43356685
1.431060639
1.428630306
1.426295817
1.424077801
1.421997575
1.42007713
1.418339034
1.416806227
1.415501684
1.414447988
1.413666786
1.413178063
1.412999214
1.413130883
1.413591615
1.414404261
1.415552291
1.417026609
1.418810623
1.420880299
1.42320456
1.425746084
1.428462456
1.4313076
1.434233361
1.437191112
1.44013325
1.443014474
1.445792773
1.448430079
1.450892594
1.453150818
1.455179345
1.456956509
1.458463974
1.459686316
1.460610682
1.461226324
1.461521803
1.461499768
1.461153332
1.46048275
1.459491952
1.458189133
1.45658732
1.454704856
1.45256572
1.450199593
1.447641604
1.444931694
1.442113625
1.439233662
1.43633905
1.433476424
1.430690321
1.42802194
1.425508256
1.423181538
1.421069228
1.419194117
1.41757469
1.416225522
1.415157625
1.41437868
1.413899801
1.413719777
1.413820244
1.414208239
1.414876461
1.415814539
1.417009376
1.418445464
1.420105247
1.421969502
1.424017723
1.426228491
1.428579818
1.431049451
1.433615149
1.436254916
1.438947198
1.441671047
1.444406263
1.447133504
1.449834397
1.452491644
1.455089125
1.45761202
1.460046932
1.462382012
1.464607081
1.466713738
1.468695434
1.470547516
1.472267225
1.473853636
1.475307563
1.476631409
1.477828986
1.478905301
1.479866331
1.480718781
1.481469856
1.482127032
1.482697856
1.483189755
1.48360988
1.483964973
1.484261253
1.484504327
1.484699124
1.484849835
1.484959866
1.485031841
1.485067831
1.475749583
1.475558673
1.47517906
1.474611081
1.473857408
1.472921232
1.471806124
1.470516104
1.469055799
1.467430633
1.465647004
1.463712433
1.461635665
1.459426732
1.457096964
1.454658965
1.452126542
1.449514603
1.446839025
1.444116508
1.441364427
1.438600679
1.435843571
1.433111728
1.430424054
1.427799729
1.42525826
1.422819567
1.420504079
1.418332842
1.416327582
1.414510711
1.412905221
1.411534405
1.410421498
1.409589203
1.409058979
1.408850013
1.408963651
1.40941625
1.410244697
1.411428969
1.412961767
1.414827627
1.417002744
1.41945523
1.422145861
1.425029295
1.428055659
1.431172378
1.434326072
1.437464353
1.440537372
1.443499012
1.446307672
1.448926637
1.451324087
1.453472809
1.455349729
1.456935382
1.458213405
1.459170139
1.45979348
1.460072005
1.460008931
1.459596561
1.458835578
1.457730861
1.45629216
1.454534716
1.452479749
1.450154723
1.44759328
1.44483478
1.441923386
1.438906756
1.435834403
1.432755916
1.429719221
1.426769114
1.423946204
1.421286378
1.418820748
1.416575982
1.414574842
1.412836751
1.411378217
1.410213025
1.409352154
1.408811581
1.408597198
1.408681603
1.40908059
1.409787885
1.410793252
1.412082693
1.413638954
1.415442045
1.41746979
1.419698388
1.422102936
1.424657922
1.427337658
1.430116677
1.432970061
1.435873715
1.438804581
1.441740791
1.444661782
1.447548361
1.450382756
1.453148659
1.455831264
1.458417321
1.460895199
1.463254957
1.465488415
1.467589215
1.469552854
1.47137669
1.473059898
1.474603388
1.476009674
1.477282703
1.478427656
1.479450721
1.480358863
1.481159579
1.481860675
1.482470044
1.48299548
1.483444499
1.483824201
1.48414115
1.484401275
1.484609797
1.48477116
1.484888988
1.484966072
1.485004601
1.475042309
1.474835369
1.474423604
1.473807655
1.472990756
1.471976642
1.470769377
1.469373444
1.467793952
1.466036885
1.464109338
1.462019701
1.459777799
1.457394963
1.454884044
1.452259368
1.449536631
1.446732749
1.443865664
1.440954122
1.438017443
1.435075299
1.432147526
1.429253976
1.426414442
1.423648645
1.420976298
1.418417222
1.415991508
1.413719703
1.411622975
1.409723233
1.408043144
1.406605946
1.405435171
1.404554275
1.403985968
1.403751149
1.403851928
1.404301435
1.405152208
1.406380989
1.407982843
1.409944062
1.412241673
1.41484347
1.417708631
1.420788931
1.424030463
1.427375709
1.430765763
1.434142493
1.437450431
1.440638251
1.443659754
1.446474332
1.449046986
1.451347974
1.453352218
1.455038642
1.456389554
1.457390174
1.458026607
1.458288176
1.458177662
1.457687132
1.456817974
1.455576466
1.453974525
1.452030352
1.449768882
1.447221925
1.444427881
1.44143096
1.438279889
1.435026187
1.431722168
1.428418914
1.425164513
1.422002799
1.418972755
1.416108595
1.41344038
1.410994932
1.408796744
1.406868632
1.405231948
1.403906294
1.402908745
1.402260623
1.401983653
1.402033715
1.402439156
1.403194361
1.404288664
1.405706028
1.407426063
1.409424837
1.411675683
1.414149971
1.416817828
1.419648782
1.422612363
1.425678616
1.428818562
1.432004561
1.435210601
1.438412487
1.441587945
1.444716666
1.447780282
1.450762316
1.453648127
1.456424856
1.459081394
1.461608373
1.463998175
1.466244955
1.468344653
1.470294999
1.47209548
1.473747275
1.475253145
1.476617286
1.477845141
1.478943188
1.479918714
1.480779574
1.48153396
1.482190176
1.482756438
1.483240688
1.483650448
1.483992681
1.484273696
1.484499053
1.484673502
1.48480092
1.484884296
1.484925953
1.474181599
1.473954668
1.473502868
1.472827276
1.471931847
1.470821027
1.469499518
1.467972404
1.466245435
1.464325348
1.46222017
1.459939462
1.457494489
1.454898314
1.452165804
1.449313552
1.446359734
1.443323876
1.440226584
1.437089218
1.433933561
1.430781497
1.427654728
1.424574569
1.421561827
1.418636785
1.415819278
1.413128864
1.410585052
1.408207578
1.406016683
1.404033367
1.402279542
1.400777971
1.3995521
1.398625788
1.398022757
1.397765532
1.397856936
1.398305791
1.399181762
1.40045877
1.402134933
1.404199111
1.406630023
1.409395938
1.412455058
1.415756636
1.419242755
1.422850621
1.426515125
1.430171423
1.43375726
1.437214828
1.440492045
1.4435432
1.446329029
1.448816339
1.450977312
1.452788686
1.45423101
1.455288087
1.455943932
1.456189117
1.456025449
1.455445302
1.454451212
1.453051463
1.451260882
1.449101473
1.446602752
1.443801664
1.440741951
1.43747292
1.434047643
1.430520732
1.426945974
1.42337419
1.419851687
1.416419575
1.413114047
1.409967462
1.407009887
1.404270655
1.401779471
1.399566795
1.39766336
1.396098919
1.394900356
1.394094374
1.393725992
1.393729143
1.394144423
1.394966691
1.396183241
1.397774033
1.399713526
1.401971934
1.404516341
1.407311696
1.410321691
1.413509548
1.416838743
1.420273653
1.423780131
1.427325999
1.430881417
1.434419142
1.437914653
1.441346165
1.44469454
1.447943141
1.451077646
1.454085861
1.456957563
1.45968437
1.462259656
1.464678511
1.466937711
1.469035701
1.470972577
1.472750029
1.474371261
1.475840868
1.477164675
1.478349545
1.479403164
1.480333807
1.481150109
1.481860838
1.482474682
1.483000062
1.483444966
1.483816809
1.48412232
1.484367447
1.484557281
1.484695984
1.484786771
1.484832113
1.473162311
1.472911161
1.472410943
1.471663354
1.470673302
1.469446163
1.467987491
1.466303192
1.464399889
1.462285344
1.459968839
1.457461486
1.454776441
1.451929001
1.448936606
1.445818715
1.442596586
1.439292966
1.435931694
1.432537258
1.429134333
1.425747333
1.422400029
1.419115267
1.415914818
1.412819366
1.409848632
1.407021604
1.40435686
1.401872939
1.399588741
1.397523913
1.395699156
1.394136342
1.392858442
1.391889371
1.39125361
1.390975261
1.391058151
1.391504867
1.392403857
1.393727006
1.395476127
1.397643618
1.400210995
1.40314811
1.406413165
1.409953606
1.413707859
1.417607772
1.421581509
1.425556583
1.429462697
1.433234107
1.436811312
1.440141998
1.443181263
1.445891278
1.448240531
1.450202876
1.45175661
1.452883819
1.45356624
1.453796068
1.453574008
1.452893318
1.451758306
1.45018003
1.448177112
1.445776281
1.443012479
1.43992842
1.436573435
1.433001622
1.429269388
1.425432671
1.421544302
1.417652017
1.413797591
1.410017346
1.406343908
1.402808764
1.399444919
1.396288923
1.393381688
1.390767863
1.388493817
1.386604724
1.385141243
1.384136945
1.383657671
1.38362025
1.38406622
1.384993465
1.386383603
1.388209585
1.390438197
1.393031767
1.39594953
1.399148744
1.402585622
1.406216158
1.409996901
1.413885684
1.417842316
1.421829195
1.42581182
1.429759144
1.433643769
1.437441968
1.441133553
1.444701631
1.448132286
1.451414232
1.45453849
1.457498105
1.460287933
1.462904487
1.465345849
1.467611615
1.469702859
1.471622097
1.47337323
1.474961451
1.476393121
1.477675606
1.478817077
1.479826301
1.480712414
1.481484694
1.482152347
1.48272431
1.48320908
1.483614561
1.48394794
1.484215588
1.484422966
1.484574552
1.484673802
1.484723354
1.471979513
1.471699688
1.471142253
1.470309773
1.469208409
1.46784477
1.466225564
1.464357821
1.462249369
1.459909355
1.45734873
1.454580626
1.451620606
1.44848677
1.445199725
1.441782403
1.438259751
1.434658303
1.431005648
1.427329835
1.423658753
1.420019536
1.416438064
1.412938601
1.409543633
1.406273893
1.403148567
1.400185629
1.397402271
1.394815391
1.392442109
1.390300279
1.388408951
1.386788694
1.385461639
1.384451416
1.383783019
1.383482091
1.38355458
1.383993596
1.384906969
1.386268012
1.388081471
1.390344481
1.393042702
1.396148986
1.399622891
1.403411187
1.407449399
1.41166429
1.415977024
1.420306669
1.424573625
1.42870261
1.432624919
1.436279814
1.439615042
1.442586622
1.44515811
1.447299564
1.448986437
1.450198772
1.450915897
1.45113197
1.450846801
1.450055206
1.448764064
1.446988153
1.4447509
1.442084712
1.439030717
1.435637742
1.431960432
1.428056558
1.423983759
1.419796226
1.415542034
1.411261851
1.40698957
1.402754927
1.398587553
1.394521444
1.390598656
1.386871193
1.38340049
1.380254493
1.377502821
1.3752112
1.373436156
1.372221135
1.371646384
1.371598722
1.372127542
1.37322525
1.374863228
1.377003898
1.379603903
1.38261613
1.385991115
1.389678042
1.393625511
1.397782219
1.402097646
1.406522793
1.411010954
1.415518481
1.420005464
1.424436268
1.428779862
1.433009926
1.437104732
1.441046831
1.44482262
1.448421821
1.451836968
1.455062931
1.458096524
1.460936206
1.463581888
1.466034804
1.468297454
1.470373561
1.472268033
1.473986916
1.4755373
1.476927193
1.478165365
1.479261153
1.480224251
1.481064497
1.481791652
1.482415206
1.482944195
1.48338704
1.48375142
1.48404415
1.48427109
1.484437053
1.484545757
1.484600013
1.470628969
1.470315845
1.469692103
1.468761497
1.467531817
1.466011305
1.464208217
1.462131117
1.459789456
1.457194229
1.454358552
1.451298112
1.448031446
1.444580045
1.440968275
1.437223118
1.433373762
1.429451032
1.425486708
1.421512754
1.417560512
1.41365993
1.40983891
1.406122866
1.402534553
1.399094193
1.39581982
1.392727788
1.389833345
1.387151252
1.384696408
1.382484471
1.380532452
1.378859246
1.377485783
1.376435092
1.375732409
1.375404882
1.375462858
1.375885272
1.37679746
1.378182359
1.380044389
1.382386783
1.385200888
1.388464254
1.392139524
1.396174371
1.400502664
1.405046815
1.409721113
1.414435646
1.41910036
1.423628786
1.427941027
1.43196579
1.435641376
1.438915756
1.441745948
1.444097004
1.445940768
1.447254843
1.448016052
1.448220834
1.447868616
1.446956558
1.445495106
1.443503865
1.441012168
1.438059038
1.434692328
1.43096687
1.426941569
1.422675613
1.418224301
1.41363533
1.40894663
1.404186752
1.399378308
1.394544024
1.389714007
1.384932295
1.380260915
1.375780253
1.371585385
1.367778933
1.364461521
1.361722512
1.359632142
1.358248807
1.357644301
1.357656364
1.358361928
1.359728141
1.36171139
1.364260476
1.367320419
1.370834451
1.374745038
1.378994379
1.383524702
1.388278549
1.393199218
1.398231398
1.403321992
1.40842104
1.413482649
1.418465791
1.423334888
1.428060118
1.432617397
1.436988095
1.44115851
1.445119205
1.448864282
1.45239068
1.455697562
1.458785816
1.461657705
1.464316628
1.466767
1.469014189
1.471064485
1.472925087
1.474604047
1.4761102
1.477453043
1.478642576
1.479689124
1.480603127
1.481394943
1.482074641
1.482651822
1.48313545
1.483533711
1.483853892
1.484102265
1.484283995
1.484403073
1.484462494
1.469107689
1.468756563
1.468057317
1.467015281
1.465640349
1.463942883
1.46193319
1.459621869
1.457020518
1.454142512
1.451003687
1.447622848
1.444022071
1.440226781
1.43626562
1.432170102
1.427974096
1.423713131
1.419423557
1.415141589
1.410902282
1.406738518
1.402680133
1.398753334
1.394980539
1.391380666
1.387969745
1.38476169
1.381769097
1.37900402
1.37647869
1.374206217
1.37220127
1.370480755
1.369064088
1.367973386
1.367233832
1.366873916
1.366911783
1.367305896
1.368197537
1.369586794
1.371475276
1.373873242
1.376779245
1.380177403
1.384035484
1.388304089
1.392917203
1.397794197
1.402843138
1.407965038
1.413058526
1.418024393
1.422769472
1.427209523
1.431270932
1.43489129
1.43801906
1.440612686
1.442639361
1.444073732
1.444890009
1.445087209
1.44466516
1.443624281
1.441979766
1.439757298
1.436993268
1.433734132
1.430034658
1.425954888
1.421555837
1.416894328
1.412017841
1.406960802
1.401743927
1.396377954
1.39087189
1.385244229
1.379534161
1.373809567
1.368169692
1.362741629
1.357670776
1.353106857
1.349187004
1.346022188
1.343687276
1.342263706
1.341743232
1.341950527
1.342968506
1.344730482
1.347172261
1.350227532
1.35383039
1.35791642
1.362422713
1.367287414
1.372449205
1.377846975
1.383419851
1.38910764
1.394851662
1.400595853
1.406287998
1.411880908
1.4173334
1.42261094
1.427685894
1.432537373
1.437150728
1.441516784
1.445630915
1.449492103
1.453102049
1.456464429
1.459584316
1.462467784
1.465121674
1.46755347
1.469771268
1.471783766
1.473600266
1.475230643
1.476685281
1.47797496
1.479110712
1.480103639
1.480964728
1.481704658
1.482333614
1.482861119
1.483295884
1.483645677
1.4839172
1.484115978
1.484246283
1.484311296
1.467414558
1.467020766
1.466236949
1.465070478
1.463533902
1.461640295
1.459402604
1.456834057
1.453948984
1.450763721
1.447297377
1.443572397
1.439614857
1.435454516
1.431124619
1.426661497
1.422103967
1.417492565
1.412868598
1.408273014
1.403745106
1.399321132
1.395033039
1.390907572
1.386966076
1.383225078
1.379697365
1.376393232
1.373321642
1.370491203
1.367910973
1.365591186
1.363543947
1.361783962
1.360328902
1.359199716
1.3584212
1.358022793
1.358034054
1.358387916
1.359238223
1.360609035
1.362497239
1.364920883
1.367887106
1.371388457
1.375400062
1.37987784
1.384758189
1.389959373
1.395384552
1.400926171
1.40647116
1.411906311
1.417123185
1.422022062
1.426514618
1.430525291
1.433991502
1.436863047
1.439101041
1.440676462
1.441560749
1.441755723
1.441262666
1.440086284
1.438247867
1.435780545
1.432728903
1.42914742
1.425097437
1.420642465
1.415842032
1.410744831
1.405382696
1.399767685
1.393894723
1.387751333
1.381333594
1.374664433
1.367808581
1.36087974
1.354038642
1.34748247
1.341426017
1.336077579
1.331610273
1.328145829
1.325749573
1.324507545
1.324228944
1.324838962
1.32634045
1.328640666
1.331653933
1.335300823
1.339508422
1.34420938
1.349340259
1.354839772
1.360647239
1.366701513
1.372940509
1.379301396
1.385721399
1.392139079
1.398495912
1.404737933
1.41081724
1.416693156
1.422332915
1.427711827
1.432812924
1.437626193
1.442147517
1.446377489
1.450320227
1.453982319
1.457371965
1.460498341
1.463371192
1.466000604
1.468396923
1.470570743
1.472532938
1.474294679
1.475867433
1.477262897
1.478492907
1.479569293
1.480503714
1.481307484
1.481991392
1.482565531
1.483039149
1.483420502
1.483716726
1.483933716
1.484076025
1.484147021
1.46555099
1.465110058
1.464233035
1.462929862
1.461216374
1.459109017
1.456624049
1.453777969
1.450588446
1.447075322
1.443261447
1.439173255
1.434841045
1.430298991
1.425584919
1.420739905
1.415807714
1.410834098
1.405865866
1.40094966
1.396130309
1.39144882
1.386940256
1.382632086
1.378543753
1.374687762
1.371071684
1.367700304
1.364577392
1.361706999
1.359094317
1.356746335
1.354672431
1.352885022
1.351399953
1.350236868
1.349419959
1.348979536
1.348953942
1.349261585
1.350051566
1.35138023
1.353239317
1.355655177
1.358644606
1.362210274
1.366336899
1.370988332
1.376106129
1.38160999
1.38740021
1.393361925
1.399370659
1.405298463
1.411019911
1.416417303
1.421384602
1.425829937
1.429676698
1.432863521
1.435343561
1.437083107
1.438050579
1.438250693
1.4376875
1.4363711
1.434330382
1.431607353
1.428255835
1.424338583
1.41992244
1.415071424
1.409838157
1.404255024
1.398327613
1.392034075
1.385334004
1.378188284
1.37058663
1.362574368
1.354268649
1.345859656
1.337599635
1.329782798
1.322713519
1.316667338
1.311839994
1.30833319
1.30621464
1.305423611
1.305627853
1.306877437
1.309045855
1.312017856
1.315692883
1.319985673
1.324823747
1.330143819
1.335888207
1.342001712
1.348429091
1.355113277
1.361994429
1.369009853
1.376094725
1.383183506
1.390211843
1.397118711
1.403848536
1.410353018
1.416592454
1.422536413
1.428163742
1.433461947
1.438426109
1.443057501
1.447362114
1.451349245
1.455030291
1.458417801
1.461524816
1.464364476
1.466949822
1.469293761
1.471409098
1.473308597
1.475005031
1.476511187
1.477839823
1.479003574
1.480014824
1.480885553
1.481627169
1.482250349
1.482764879
1.48317951
1.483501815
1.483738054
1.483893064
1.483970395
1.463521577
1.463029398
1.462051314
1.460600419
1.458696507
1.456360111
1.453611488
1.450471046
1.446960337
1.443103115
1.438926192
1.434459992
1.429738789
1.424800692
1.41968747
1.414444292
1.409119459
1.403764059
1.398431392
1.393175833
1.388050776
1.383105454
1.378380999
1.373906868
1.369699615
1.365764936
1.362101635
1.358705598
1.355572706
1.352700598
1.350089507
1.347742666
1.345666601
1.343871509
1.342371538
1.341185103
1.340335735
1.339854288
1.339782428
1.340044383
1.340760954
1.342025716
1.343827906
1.346202251
1.349175828
1.352762742
1.356959348
1.361740092
1.367054712
1.372827421
1.378958403
1.385327568
1.391800155
1.398233461
1.404483892
1.410413526
1.41589559
1.42081846
1.425088064
1.428628851
1.431383656
1.433312658
1.434380874
1.434595786
1.43396577
1.43250748
1.430259009
1.42727269
1.423612461
1.419349131
1.414553095
1.409284451
1.403581344
1.397448862
1.390852674
1.38372314
1.375975066
1.367543725
1.358428746
1.348728842
1.338651943
1.328501224
1.318651729
1.309523835
1.301534761
1.295035095
1.290206689
1.28709932
1.28571644
1.285599191
1.286661127
1.288768589
1.291757001
1.295494081
1.299876079
1.304823188
1.310272886
1.316173677
1.322479883
1.329147544
1.336131232
1.343381785
1.350844984
1.358461196
1.366165962
1.373891429
1.381568473
1.389129275
1.396510066
1.403653699
1.410511764
1.417045987
1.423228814
1.429043161
1.434481465
1.439544219
1.444238246
1.448574933
1.452568616
1.456235251
1.459591415
1.462653657
1.465438133
1.467960474
1.470235795
1.472278778
1.474103764
1.475724827
1.477155791
1.478410193
1.479501207
1.480441513
1.481243163
1.481917424
1.482474627
1.482924014
1.483273593
1.483529986
1.483698307
1.483782283
1.461334673
1.460787699
1.45970186
1.458094003
1.455988563
1.453410861
1.450385805
1.446938247
1.443093974
1.438880748
1.434329113
1.429472861
1.424349205
1.418998775
1.413465636
1.407797468
1.402046026
1.396267767
1.390524281
1.384881778
1.379408623
1.374170057
1.369220359
1.364594561
1.360304855
1.356344669
1.352697068
1.349342656
1.346264571
1.343450927
1.340895261
1.338596351
1.336557814
1.334787936
1.333299618
1.33211045
1.331243511
1.330729698
1.330612984
1.33083133
1.331469395
1.332654814
1.334377425
1.336680251
1.339600829
1.343165583
1.347384229
1.352244315
1.357706885
1.3637041
1.370139398
1.376890354
1.383813956
1.390753638
1.39754721
1.404034815
1.410066126
1.415506224
1.420239795
1.424173581
1.427237259
1.429383026
1.43057191
1.430813727
1.430122959
1.428523964
1.426065707
1.422812257
1.418838314
1.414221986
1.409034272
1.403325318
1.397108865
1.390348665
1.382953574
1.374790234
1.36572071
1.355663309
1.344658047
1.332904232
1.320748103
1.308639409
1.297099024
1.28670718
1.278034269
1.271525595
1.267257024
1.265242249
1.264885613
1.2659059
1.268103862
1.271238773
1.275135205
1.279666493
1.284743189
1.290303592
1.296304001
1.302710933
1.309495241
1.316627753
1.324075926
1.331801379
1.339758324
1.347892936
1.356143691
1.364442647
1.372717598
1.380894914
1.388902807
1.396674637
1.404151901
1.411286533
1.418042286
1.424395104
1.430332525
1.435852313
1.440960587
1.445669739
1.449996397
1.453959647
1.457579617
1.46087648
1.46386984
1.466578434
1.469020065
1.471211671
1.47316945
1.474908988
1.476445345
1.477793082
1.478966234
1.479978236
1.480841806
1.481568814
1.482170135
1.482655504
1.483033355
1.483310665
1.483492816
1.4835837
1.459002853
1.458398294
1.457199541
1.455427774
1.4531127
1.450285041
1.446974864
1.443211766
1.439025753
1.434448162
1.429512291
1.424253696
1.418710257
1.412922274
1.406932906
1.400789278
1.394544423
1.388259955
1.382008783
1.375876423
1.369958611
1.364352569
1.359141189
1.354373417
1.350054232
1.346153185
1.342623481
1.339418378
1.336499663
1.333841025
1.331426847
1.329250693
1.327313535
1.325622518
1.324190276
1.323034488
1.322178452
1.321653499
1.321505937
1.321689548
1.322254965
1.323353443
1.324982472
1.327191419
1.330027794
1.333530783
1.337724764
1.342612572
1.348169541
1.354339348
1.361032477
1.36812775
1.375476832
1.382911166
1.390250498
1.397312083
1.403919703
1.409911736
1.415147667
1.419512619
1.422919811
1.425311128
1.426642759
1.426926063
1.426183576
1.424448449
1.421782198
1.41826196
1.413973579
1.409001163
1.403412411
1.397239931
1.390460825
1.382980423
1.374630652
1.36519681
1.354483102
1.342410287
1.329108057
1.314942117
1.300447052
1.28623136
1.272956468
1.26141398
1.252433008
1.246625005
1.243898203
1.24339748
1.244611774
1.247168649
1.250678543
1.254908805
1.259713161
1.264997576
1.270703762
1.276797643
1.28325958
1.290076971
1.297238932
1.304732408
1.312539111
1.320633092
1.328979017
1.33753123
1.346233693
1.355020918
1.363819891
1.372552936
1.38114128
1.389508982
1.397586763
1.40531531
1.412647646
1.419550362
1.42600364
1.432000214
1.437543531
1.442645451
1.447323823
1.451600229
1.455498083
1.459041199
1.46225283
1.465155129
1.467768932
1.470113775
1.472208013
1.474068996
1.475713209
1.477156378
1.478413498
1.479498814
1.480425747
1.481206782
1.481853347
1.48237566
1.482782575
1.483081414
1.483277815
1.483375825
1.456543182
1.455879188
1.454564233
1.452624337
1.450094975
1.447012695
1.443412951
1.439329981
1.434797417
1.42984891
1.42451843
1.418840257
1.412848903
1.406579409
1.400068577
1.393357694
1.386497123
1.379552711
1.372613036
1.365795088
1.359243882
1.35311916
1.347564445
1.342660739
1.338399496
1.334700901
1.33146012
1.328581277
1.325990115
1.323639242
1.321501066
1.31956379
1.317826929
1.316298218
1.314991897
1.313927468
1.313129897
1.312632115
1.312483902
1.312650938
1.313164805
1.314178351
1.315712543
1.3178161
1.320546441
1.323955679
1.328083655
1.33295017
1.338547466
1.344834166
1.35173176
1.359124385
1.366862083
1.374767146
1.382642828
1.39028352
1.397485511
1.404057481
1.409829801
1.414661832
1.418446639
1.421113045
1.422611252
1.422952976
1.422170842
1.420307772
1.417439474
1.413657376
1.409058619
1.403731591
1.397736074
1.391078378
1.383684879
1.375382744
1.365903786
1.354932453
1.342212848
1.327699867
1.311685212
1.294789854
1.277781504
1.261384259
1.246308814
1.233687227
1.224947411
1.221225461
1.220638779
1.222439448
1.225803887
1.23006836
1.234911427
1.240186408
1.245816281
1.251759463
1.257997826
1.264527761
1.271353794
1.278483307
1.28592264
1.293674153
1.301733669
1.310088216
1.318714164
1.327575913
1.336625316
1.345802027
1.355034951
1.364244818
1.373347784
1.38225974
1.390900868
1.399199926
1.407097728
1.414549441
1.421525494
1.428011141
1.434004888
1.439516147
1.444562514
1.449167058
1.453355898
1.457156254
1.460595059
1.463698073
1.466489459
1.46899166
1.471225491
1.473210324
1.474964285
1.476504421
1.477846802
1.479006557
1.479997849
1.480833805
1.481526406
1.482086354
1.482522913
1.482843735
1.483054702
1.48316
1.453977263
1.453253063
1.451820742
1.449711517
1.446966899
1.443629369
1.439739567
1.435335657
1.430453463
1.425126554
1.419385991
1.413259837
1.406772879
1.399947288
1.392805115
1.385373555
1.377693716
1.369833092
1.361900781
1.35406221
1.346546298
1.339629531
1.333580424
1.328550162
1.324502942
1.321252584
1.318582933
1.316314032
1.314311275
1.312499597
1.310837413
1.309309486
1.307917256
1.306672531
1.305594423
1.304707113
1.304039696
1.303628826
1.30352955
1.303708578
1.304205697
1.305160206
1.306609957
1.30860885
1.311223161
1.314517436
1.318547128
1.323350024
1.328937317
1.335285625
1.342331292
1.349968054
1.358048569
1.366389664
1.374780709
1.38299433
1.390798688
1.39797044
1.404307256
1.409638567
1.413833336
1.416804216
1.418493992
1.418913152
1.418106418
1.416127315
1.413067298