/*--------------------------------*- C++ -*----------------------------------*\
| =========                 |                                                 |
| \\      /  F ield         | OpenFOAM: The Open Source CFD Toolbox           |
|  \\    /   O peration     | Version:  2412                                  |
|   \\  /    A nd           | Website:  www.openfoam.com                      |
|    \\/     M anipulation  |                                                 |
\*---------------------------------------------------------------------------*/
FoamFile
{
    version     2.0;
    format      ascii;
    arch        "LSB;label=32;scalar=64";
    class       volScalarField;
    location    "0.1";
    object      T;
}
// * * * * * * * * * * * * * * * * * * * * * * * * * * * * * * * * * * * * * //

dimensions      [0 0 0 1 0 0 0];

internalField   nonuniform List<scalar> 
12008
(
310.1237812
310.157566
310.2245792
310.3249521
310.4584382
310.6247149
310.8233839
311.053959
311.3158463
311.6083209
311.9305035
312.2813372
312.6595688
313.0637345
313.4921475
313.9428893
314.4138049
314.9025001
315.4063412
315.9224562
316.4477368
316.9788408
317.5121932
318.043988
318.5701889
319.0865321
319.5885306
320.0714846
320.5305003
320.9605203
321.3563726
321.7128232
322.0246679
322.2868473
322.4945797
322.6435195
322.7299394
322.7509403
322.7054525
322.5908209
322.4071419
322.1564914
321.8419464
321.4679236
321.0401114
320.5653326
320.0513502
319.5066318
318.9400888
318.3608119
317.7778186
317.1998289
316.6350798
316.0911866
315.5750517
315.0928212
314.6498816
314.2508887
313.899819
313.6000341
313.3543492
313.165095
313.0341666
312.9631576
312.9527124
313.0034807
313.115608
313.2886382
313.5214499
313.8121543
314.1579956
314.5552636
314.9992326
315.4841409
316.0032212
316.5487899
317.1123979
317.6850362
318.2573869
318.8200996
319.3640736
319.8807228
320.3622041
320.8015949
321.1930115
321.5316695
321.81389
322.0370644
322.1995853
322.3005104
322.3401958
322.3206137
322.2427357
322.1086015
321.9207716
321.682235
321.3963394
321.0667271
320.697274
320.292036
319.8552001
319.3910366
318.9038627
318.3980095
317.8777892
317.3474646
316.8112185
316.2731242
315.7371126
315.2069384
314.6861431
314.1780182
313.6855689
313.2114783
312.7580759
312.3273125
311.9207423
311.5395153
311.1843791
310.8556917
310.5534428
310.2772855
310.0265732
309.8004031
309.5976614
309.4170712
309.2572387
309.1166975
308.9939502
308.8875053
308.7959097
308.7177763
308.6518072
308.5968124
308.5517239
308.5156078
308.4876724
308.4672755
308.4539303
308.4473187
310.1526851
310.1870602
310.2553296
310.3575735
310.4935143
310.6627947
310.8649819
311.099556
311.3658891
311.6632206
311.9906318
312.3470251
312.7311045
313.1413607
313.5760601
314.0332388
314.5106989
315.0060079
315.5165011
316.0392845
316.5712379
317.1090187
317.6490633
318.1875875
318.7205858
319.2438302
319.7528709
320.2430402
320.7094639
321.1470838
321.5506924
321.9150013
322.2347189
322.5046524
322.7198421
322.8757188
322.9682828
322.994291
322.9532882
322.8415427
322.6584467
322.406523
322.0886986
321.7093606
321.2742717
320.7904245
320.265836
319.7092935
319.1300722
318.5376456
317.9414091
317.350434
316.7732667
316.2177787
315.6910726
315.19944
314.7483646
314.3425611
313.986037
313.6821673
313.4337706
313.2431783
313.1122865
313.0428532
313.0352165
313.0901766
313.2078783
313.3878333
313.6288649
313.9289983
314.285355
314.6940616
315.150189
315.6477358
316.1796677
316.7380209
317.3140694
317.8985502
318.4819307
319.0546994
319.6076546
320.1321689
320.6204082
321.0654945
321.4616063
321.8040203
322.0891042
322.3142742
322.4779316
322.5788228
322.6173848
322.5961067
322.5154609
322.3774879
322.1847677
321.9403331
321.647603
321.3103141
320.932454
320.5182012
320.0718683
319.5978551
319.1006023
318.5845508
318.0541083
317.5136173
316.9673256
316.4193571
315.873681
315.3340805
314.8041201
314.2871111
313.7860753
313.3037123
312.8423684
312.4040118
311.9902149
311.6021448
311.240565
310.9058462
310.5979879
310.3166478
310.0611795
309.8306751
309.6240114
309.4398973
309.2769211
309.1335961
309.0084019
308.8998233
308.8063829
308.7266697
308.6593629
308.6032506
308.5572451
308.5203947
308.4918925
308.4710825
308.4574593
308.4506555
310.2102953
310.2459196
310.316693
310.4226738
310.5635351
310.7388671
310.9481867
311.1909269
311.4664127
311.7738333
312.1122146
312.4803948
312.8770043
313.3004514
313.7489115
314.2203231
314.7123866
315.2225672
315.7481005
316.2859998
316.8330636
317.3858823
317.9408427
318.4941297
319.0417255
319.5794057
320.1027347
320.607063
321.0875287
321.5390686
321.9564436
322.3342863
322.6671755
322.9497358
323.176759
323.3433571
323.4451465
323.47845
323.4430983
323.3348075
323.1511679
322.8954063
322.5702417
322.1800098
321.7305861
321.2292397
320.6844129
320.1054406
319.5022303
318.8849301
318.2636089
317.6479717
317.047129
316.4694276
315.9223486
315.4124677
314.9454694
314.5262027
314.1587609
313.8465745
313.5925019
313.398909
313.2677294
313.2010084
313.1985677
313.2615295
313.3900019
313.5834351
313.8405352
314.1591443
314.5361248
314.9672643
315.4472176
315.9695014
316.526555
317.1098729
317.7102079
318.3178326
318.9228407
319.5154592
320.0863455
320.6268423
321.1291721
321.5865631
321.9933092
322.3447747
322.6373602
322.868448
323.0363426
323.1391888
323.1775131
323.1544471
323.0696674
322.9251295
322.7234073
322.467604
322.1612808
321.8083793
321.4131429
320.9800389
320.5136873
320.0187964
319.5001043
318.9623288
318.4101233
317.8480409
317.2805011
316.7117618
316.1458921
315.5867457
315.0379339
314.5027975
313.9843777
313.4853876
313.0081855
312.5547518
312.1266719
311.7251271
311.3508939
311.0043541
310.6855136
310.3940314
310.1292553
309.8902642
309.6759138
309.4848854
309.315733
309.1669305
309.036915
308.9241257
308.8270392
308.744199
308.6742402
308.6159093
308.5680805
308.5297678
308.5001355
308.4785053
308.4643563
308.4572807
310.2974452
310.3349786
310.4095873
310.5213009
310.6697277
310.8543927
311.0747545
311.3301929
311.6199804
311.9432481
312.2989526
312.6858473
313.1024588
313.5470711
314.0177154
314.5121662
315.0279441
315.562323
316.1123413
316.6748165
317.2463595
317.8233893
318.4021441
318.9786884
319.5489145
320.1085392
320.653096
321.1779244
321.6781621
322.1487414
322.5843997
322.9797086
323.3291316
323.6271148
323.8682011
324.0471721
324.1592374
324.2002671
324.170059
324.0644015
323.8782098
323.6155401
323.2788399
322.8723482
322.4020468
321.8755257
321.3017524
320.6907628
320.0532952
319.4004026
318.7430735
318.091893
317.456768
316.8467286
316.2698126
315.7330259
315.2423702
314.8029203
314.4189299
314.0939468
313.8309239
313.6323114
313.5001716
313.4367899
313.4415149
313.5158304
313.6597807
313.8727126
314.1531413
314.4986155
314.9055923
315.3693404
315.8838919
316.4420592
317.0355323
317.6550581
318.2906973
318.9321382
319.5690388
320.1913615
320.7896655
321.3553321
321.8807059
322.3591562
322.7850728
323.1538196
323.4616717
323.7057598
323.8840351
323.9937324
324.03499
324.0119638
323.9230695
323.7700862
323.5555654
323.2827403
322.9554367
322.5779746
322.155063
321.6916948
321.193047
320.6643893
320.111003
319.53811
318.9508145
318.3540551
317.7525667
317.1508511
316.5531546
315.9634485
315.3854123
314.8224175
314.2775098
313.7533911
313.2524008
312.7764997
312.3272555
311.9058356
311.5130054
311.149137
310.8142256
310.5079159
310.2295359
309.9781376
309.7525422
309.551388
309.3731792
309.2163334
309.0792266
308.9602343
308.8577679
308.7703061
308.6964215
308.6348014
308.5842652
308.543778
308.5124612
308.4896013
308.4746497
308.467174
310.4149405
310.4551026
310.534993
310.6546027
310.8134593
311.0110099
311.2466464
311.5196899
311.8293543
312.174703
312.5546064
312.9677065
313.4123878
313.8867576
314.388635
314.9155488
315.4647434
316.0331927
316.6176201
317.2145229
317.8201997
318.4307759
319.0422272
319.6503956
320.2509981
320.839626
321.4117354
321.9626305
322.4874442
322.9811198
323.4384013
323.8538418
324.2218377
324.536706
324.7927844
324.9845582
325.1068481
325.1550685
325.128843
325.0244355
324.8334994
324.5609445
324.2088562
323.7812924
323.2842835
322.7257236
322.1151415
321.4633666
320.7821145
320.0835346
319.3797572
318.6824849
318.0026566
317.3502071
316.7339278
316.1614243
315.6391549
315.1725335
314.7660645
314.423489
314.147918
313.94194
313.8078844
313.7480212
313.7615749
313.8502191
314.0139344
314.2519039
314.5623588
314.9424284
315.3880078
315.893667
316.4526237
317.0567989
317.6969686
318.363011
319.044233
319.7297455
320.408844
321.0713473
321.707856
322.3099061
322.8700161
323.3816489
323.8391228
324.2375137
324.572584
324.8407624
325.0391838
325.163904
325.2133925
325.1939065
325.1018264
324.9387219
324.7071624
324.4106568
324.0535164
323.6407141
323.1777338
322.6704197
322.1248357
321.5471363
320.943452
320.3197911
319.6819584
319.0354908
318.385611
317.7371955
317.0947563
316.4624329
315.8439895
315.2428165
314.6619305
314.1039739
313.5712107
313.0655216
312.5883983
312.1409396
311.7238521
311.3374568
310.9817037
310.6561943
310.360213
310.0927641
309.8526161
309.6383477
309.4483968
309.2811088
309.1347822
309.0077123
308.8982288
308.8047294
308.725708
308.6597774
308.6056881
308.5623428
308.5288086
308.5043264
308.4883121
308.4803081
310.5637826
310.607359
310.6941029
310.8239514
310.9963301
311.2105904
311.4660443
311.7619434
312.0974307
312.4714844
312.8828637
313.3300616
313.8112691
314.32435
314.8668289
315.4358901
316.0283896
316.640878
317.2696326
317.9106971
318.5599259
319.2130271
319.8656021
320.5131759
321.1512151
321.7751324
322.3802759
322.9619069
323.5151677
324.0350465
324.5163455
324.953663
325.3413998
325.6738163
325.9451129
326.1495357
326.2815541
326.3361339
326.3127063
326.2082554
326.0107465
325.7259043
325.3553271
324.9027605
324.3741675
323.7776658
323.1233171
322.4227785
321.6888444
320.9349232
320.1744999
319.4206393
318.6855711
317.9803884
317.3148719
316.6974341
316.1351654
315.6339597
315.1986844
314.8333612
314.5413288
314.3253692
314.1881648
314.1318089
314.1556162
314.2613327
314.4488247
314.7170275
315.0637714
315.4856201
315.9777398
316.5338261
317.1461156
317.8055024
318.501769
319.2239218
319.9606013
320.7005171
321.4328442
322.1475244
322.8354303
323.4883824
324.0990452
324.6607527
325.16733
325.6129709
325.9922142
326.3000356
326.5320535
326.6829758
326.7475138
326.7358469
326.6413885
326.4655889
326.211188
325.8822717
325.4840065
325.0224219
324.5041903
323.9364168
323.3264473
322.6816946
322.0094855
321.3169294
320.6108093
319.8974975
319.1828956
318.4723992
317.7708841
317.0827101
316.4117385
315.7613559
315.1345003
314.5336845
313.9610156
313.4182076
312.9065898
312.4271119
311.9803486
311.5665068
311.1854381
310.8366574
310.5193697
310.2325031
309.9747492
309.7446073
309.5404313
309.3604781
309.2029542
309.0660594
308.9480278
308.8471619
308.7618635
308.6906579
308.6322142
308.5853616
308.5491028
308.5226247
308.5053012
308.4966466
310.7451068
310.7929493
310.8882435
311.0308495
311.2200608
311.4551062
311.7351956
312.0594903
312.4270397
312.8367079
313.2871036
313.7765193
314.3028855
314.8637398
315.4562131
316.077032
316.7225389
317.3887271
318.0712909
318.7656853
319.4671932
320.1709917
320.8722125
321.56599
322.2474907
322.9119225
323.5545231
324.1705286
324.7551289
325.3034121
325.8103085
326.2705425
326.6786072
327.0287912
327.3152358
327.5320165
327.6732953
327.7335951
327.7121644
327.6069683
327.4018663
327.1033244
326.7122926
326.2320239
325.6682352
325.0291164
324.3251621
323.5688277
322.7740375
321.9555918
321.1285356
320.3075553
319.5064635
318.7378129
318.0126622
317.3404921
316.7292501
316.1854928
315.7145902
315.3209487
315.0082089
314.779396
314.6375996
314.5846221
314.619983
314.7453913
314.960513
315.2639192
315.6528943
316.1232702
316.6693097
317.283672
317.9574885
318.6805708
319.4417502
320.2293244
321.0315558
321.8371441
322.6355873
323.4173611
324.1738914
324.8973405
325.5802829
326.2153735
326.7951091
327.3117624
327.757518
328.1247961
328.4067361
328.5966009
328.6834538
328.6827107
328.5848048
328.3911194
328.1049792
327.7315665
327.2774501
326.7502457
326.1583086
325.5104577
324.8157336
324.0831839
323.3216746
322.5397263
321.7453771
320.9460738
320.1485952
319.359009
318.5826605
317.824189
317.0875664
316.3761497
315.6927388
315.0396331
314.4186817
313.8313227
313.2786127
312.7612463
312.2795695
311.8335902
311.4229891
311.0471349
310.7051047
310.395712
310.1175413
309.8689877
309.6483017
309.4536348
309.2830865
309.1347484
309.0067458
308.8972744
308.8046323
308.7272462
308.6636938
308.6127212
308.5732583
308.5444307
308.5255649
308.5161435
310.9601125
311.0131353
311.118795
311.2768401
311.4863906
311.7465141
312.0562826
312.4147328
312.8207832
313.2731397
313.7702048
314.3100018
314.8901168
315.5076617
316.1592599
316.8410544
317.5487391
318.2776118
319.0226463
319.7785796
320.5400078
321.3014819
322.0575943
322.8030467
323.5326915
324.2415435
324.9247625
325.5776103
326.1953881
326.7733598
327.3066695
327.7902613
328.2188181
328.5867478
328.8882143
329.1171944
329.2675902
329.3334797
329.3138548
329.2081343
328.9955841
328.6832482
328.2712686
327.7621791
327.1612055
326.4763807
325.7184498
324.9005593
324.0377505
323.1463052
322.2430161
321.3444615
320.4663632
319.6230881
318.8273273
318.0899596
317.4200779
316.8251413
316.3112051
315.8831874
315.5451147
315.3003008
315.1522728
315.1024504
315.1505875
315.2982368
315.5447421
315.8881587
316.3250504
316.8503336
317.4571959
318.1371294
318.8801083
319.6749283
320.5096906
321.3723783
322.2514312
323.1361989
324.0171616
324.8858477
325.7344641
326.5553293
327.3402692
328.0801474
328.7646726
329.382556
329.9220114
330.3714929
330.720549
330.9605123
331.075151
331.0841052
330.9774242
330.7558369
330.4241855
329.9895622
329.4606509
328.8472557
328.1599113
327.4095597
326.6072798
325.7640529
324.8905545
323.9969682
323.0928222
322.1868541
321.2869111
320.3998922
319.5317314
318.6874227
317.8710781
317.0860102
316.3348271
315.619529
314.9415981
314.3020735
313.7016107
313.1405234
312.6188108
312.1361756
311.6920363
311.2855385
310.9155697
310.5807795
310.2796068
310.0103131
309.771022
309.5597617
309.3745098
309.2132367
309.073948
308.9547222
308.8537439
308.7693324
308.6999651
308.6442973
308.6011789
308.5696685
308.5490406
308.5387429
311.2099818
311.2691546
311.3870986
311.563404
311.7969617
312.0866237
312.4312727
312.8297693
313.2808463
313.7829886
314.3343194
314.9325062
315.5746902
316.2574441
316.9767588
317.72806
318.5062549
319.3058075
320.1208391
320.9452492
321.7728473
322.5974852
323.4131754
324.2141817
324.9950706
325.7507194
326.4762855
327.1671429
327.8187969
328.4267821
328.986553
329.4933732
329.9422172
330.327705
330.6441065
330.8853739
331.045198
331.1172045
331.0998555
330.994827
330.7765288
330.4517707
330.0200514
329.48289
328.8447054
328.1130603
327.2986736
326.41518
325.4786387
324.5068372
323.518465
322.5322549
321.5661892
320.6368547
319.7589994
318.9453097
318.2063927
317.5509198
316.985875
316.5168557
316.1483743
315.8840806
315.727952
315.6809397
315.7429873
315.9153529
316.1968966
316.5849691
317.0752124
317.6614337
318.3355924
319.0879434
319.907368
320.7818967
321.6993781
322.6481937
323.6178615
324.5993534
325.5849881
326.5678641
327.5409379
328.4959722
329.4226368
330.3080178
331.1367006
331.8914556
332.5544349
333.1085958
333.5391089
333.834438
333.9743223
333.9859279
333.8572092
333.5903357
333.1929048
332.6749282
332.0479684
331.3245547
330.5177566
329.6408667
328.7071532
327.7296481
326.7209501
325.6930335
324.6570652
323.6232389
322.6006429
321.5971723
320.6194937
319.6730655
318.7622071
317.8902075
317.0594578
316.2715929
315.5276292
314.8280853
314.1730807
313.5624094
312.9955903
312.4718974
311.9903775
311.5498601
311.1489666
310.7861217
310.4595712
310.1674067
309.9075978
309.6780285
309.4765384
309.3009646
309.1491822
309.0191436
308.9089118
308.8166911
308.740852
308.6799522
308.6327561
308.5982504
308.5756538
308.5643766
311.4957795
311.5621169
311.6943448
311.8918343
312.153176
312.4769341
312.8617317
313.3061828
313.8087602
314.3676463
314.9805941
315.6448134
316.3568884
317.1127311
317.9075713
318.7359845
319.5919576
320.4689894
321.3602247
322.258614
323.1570907
324.0487489
324.9270033
325.7857075
326.6192137
327.4223675
328.1904484
328.9190725
329.6040732
330.2413706
330.8268348
331.3561478
331.8246715
332.2273304
332.5585867
332.812442
332.9824318
333.0617246
333.0476854
332.945435
332.7248436
332.3904966
331.9420171
331.3795553
330.7063409
329.9290673
329.0580491
328.1070936
327.0930691
326.0351961
324.9541409
323.8710182
322.8064236
321.7796071
320.807864
319.9061832
319.0871462
318.3610348
317.7360816
317.2187922
316.8142962
316.5266354
316.3602396
316.3155049
316.3924534
316.5918839
316.9119699
317.3491333
317.8978701
318.5506893
319.298213
320.1294905
321.032552
321.9951812
323.0058106
324.0543569
325.1327454
326.234871
327.3558547
328.4906552
329.6323388
330.7704486
331.8899131
332.9708161
333.989176
334.9186485
335.732935
336.408238
336.9254495
337.2685976
337.4187704
337.4157724
337.2405113
336.9016627
336.4109865
335.7824114
335.0309601
334.1721335
333.2215509
332.1947361
331.1069716
329.9731707
328.8077319
327.6243659
326.4358985
325.2540699
324.0893518
322.9508098
321.846025
320.7810865
319.7606543
318.7880805
317.8655737
316.9943871
316.1750086
315.4073371
314.6908321
314.0246305
313.40763
312.8385408
312.3159146
311.8381571
311.4035325
311.0101671
310.6560561
310.3390773
310.0570132
309.8075795
309.5884604
309.3973457
309.2319707
309.090153
308.9698274
308.8690771
308.7861598
308.7195311
308.6678651
308.6300729
308.6053146
308.5929616
311.818337
311.8928814
312.0414382
312.2630846
312.556022
312.918436
313.3485995
313.8447896
314.4051256
315.0273896
315.7088604
316.4461806
317.2352635
318.0712434
318.9484716
319.8605562
320.8004457
321.7605553
322.7329339
323.7094675
324.6821109
325.6431286
326.5853147
327.5021565
328.3879027
329.2375298
330.0466272
330.8112407
331.5277008
332.1924549
332.8019045
333.3522458
333.8393115
334.2584156
334.6042956
334.8710788
335.052214
335.140437
335.1311521
335.034553
334.8162136
334.4765884
334.0160232
333.4330295
332.7292434
331.9100248
330.9848054
329.9671293
328.8743319
327.7268678
326.5473529
325.3594376
324.1866516
323.0513622
321.9739531
320.9722912
320.0614919
319.253948
318.5595527
317.9860293
317.5393099
317.2239038
317.0446905
317.0014254
317.0940345
317.3226643
317.6845563
318.1749464
318.7869491
319.5116084
320.3381783
321.2546901
322.2488219
323.3090028
324.425568
325.5916494
326.8034033
328.0592353
329.3579266
330.6959668
332.0647581
333.4484535
334.8229948
336.1566583
337.4121909
338.5502541
339.5338588
340.3321828
340.9235744
341.2851491
341.4175369
341.3647975
341.1060411
340.6590963
340.0416446
339.2722047
338.3693228
337.3511549
336.2353466
335.039048
333.7789642
332.4713721
331.1320669
329.7762259
328.4182022
327.0712779
325.747412
324.4570227
323.2088343
322.0098084
320.8651696
319.778517
318.7520053
317.7865717
316.8821807
316.0380633
315.252929
314.5251392
313.8528363
313.2340297
312.6666445
312.148543
311.6775294
311.2513456
310.8676677
310.5241068
310.2182189
309.9475228
309.7095262
309.5017577
309.3218016
309.1673332
309.0361532
308.9262184
308.8356698
308.7628568
308.7063603
308.6650131
308.6379147
308.6243963
312.1781185
312.2619164
312.4288446
312.6775968
313.0058797
313.4113902
313.8919417
314.4453656
315.0693203
315.7610797
316.5173426
317.3340815
318.206442
319.1286924
320.0942234
321.0955969
322.1246385
323.1725787
324.2302429
325.2882967
326.3375447
327.3692663
328.3755441
329.3495148
330.2854639
331.1787367
332.0255189
332.82257
333.5669647
334.255871
334.886362
335.4552467
335.9589014
336.3930975
336.7529155
337.0326798
337.2258337
337.3247658
337.3219679
337.2340946
337.0231283
336.6835774
336.2169874
335.6199776
334.8921954
334.0371673
333.0628866
331.9820794
330.8120635
329.574175
328.2928082
326.9941859
325.7050164
324.4512106
323.2568036
322.1431811
321.1286477
320.2283192
319.4542704
318.8158463
318.3200446
317.9719521
317.7769002
317.7339256
317.8426219
318.1022616
318.5088699
319.0562118
319.7357852
320.5370509
321.4479838
322.4560069
323.5492975
324.7183209
325.9572583
327.2647977
328.6436763
330.0985363
331.6321873
333.2410934
334.9113923
336.616573
338.3172814
339.9633619
341.498274
342.8653214
344.0155706
344.9129286
345.5363494
345.8603686
345.9331333
345.77385
345.3824159
344.7844715
344.0042935
343.0647709
341.9871528
340.7911586
339.4952974
338.1172318
336.6740919
335.1826786
333.6595223
332.120794
330.5820893
329.0581254
327.562399
326.1068596
324.7016431
323.3549018
322.0727522
320.8593415
319.717019
318.6465851
317.6475858
316.7186165
315.8576078
315.0620687
314.3292779
313.6564176
313.0406559
312.4791875
311.9692437
311.5080861
311.0929923
310.7212447
310.3901256
310.0969223
309.8389419
309.6135343
309.4181214
309.2502284
309.107516
308.9878108
308.8891337
308.8097255
308.7480715
308.7029245
308.6733228
308.658557
312.5750781
312.6691491
312.8564268
313.1351183
313.5023149
313.955099
314.4906996
315.1063827
315.7992322
316.5659113
317.4024497
318.3040806
319.2651356
320.278994
321.3380816
322.4339112
323.5571618
324.6977996
325.84526
326.9887158
328.1174605
329.221403
330.2916125
331.320775
332.3033698
333.2354787
334.1143567
334.9379478
335.704471
336.4121141
337.0588214
337.6421335
338.1590376
338.6058066
338.9779032
339.2698957
339.4752813
339.5861145
339.5925569
339.5151264
339.316459
338.9828459
338.5171491
337.9138908
337.1703778
336.2878135
335.2721535
334.1346555
332.8919943
331.5658664
330.1820987
328.769363
327.3576656
325.9768113
324.6550298
323.4179009
322.2876551
321.2828529
320.4183925
319.7057516
319.1533517
318.7670257
318.5525695
318.5082464
318.6330169
318.9250359
319.3787913
319.9862741
320.7371468
321.6192454
322.6195219
323.7254951
324.9271507
326.2190168
327.6018343
329.0829565
330.6745412
332.389042
334.232562
336.197927
338.2598244
340.3732854
342.4751763
344.48834
346.3294664
347.9198221
349.2001065
350.1360882
350.7039741
350.9164854
350.8615912
350.5261118
349.9454704
349.1527696
348.1775078
347.0451832
345.7778224
344.3948427
342.9139275
341.3517794
339.7247034
338.0489894
336.3410777
334.6175147
332.8947249
331.188648
329.5142953
327.8852916
326.3134622
324.8085199
323.3778885
322.0266789
320.757812
319.5722622
318.4693844
317.4472792
316.5031564
315.6336623
314.8351484
314.1038717
313.4361269
312.8283194
312.276992
311.778822
311.3306006
310.92921
310.5716038
310.2547966
309.9758654
309.7319616
309.5203309
309.3383397
309.1835029
309.0535135
308.9462697
308.859902
308.7927991
308.7436335
308.7113816
308.6952944
313.0085142
313.1138138
313.3232809
313.6345222
314.0438828
314.5476944
315.1424706
315.8247919
316.5910668
317.4372729
318.3587321
319.3499446
320.4044848
321.5149484
322.6729347
323.8690461
325.0928956
326.3331353
327.5775493
328.8132905
330.0273588
331.2073794
332.3426065
333.4248815
334.4490501
335.4125755
336.3146494
337.1552553
337.9344607
338.6519754
339.3069315
339.8977693
340.4221548
340.8768765
341.2577723
341.5596537
341.7760985
341.8989073
341.9172448
341.8504054
341.6677026
341.3457054
340.8879307
340.2866944
339.536704
338.6364063
337.5891209
336.4039261
335.0961078
333.6870358
332.203431
330.6760963
329.1382822
327.6239087
326.1658706
324.7946099
323.5370699
322.4160744
321.4501063
320.6534075
320.0362856
319.6055693
319.3675514
319.3197075
319.4600009
319.78521
320.287935
320.958081
321.7832909
322.7498375
323.8441182
325.0548161
326.375595
327.8078409
329.3624841
331.0594988
332.9236828
334.9762606
337.2239297
339.6492035
342.2059606
344.8206615
347.3962522
349.8177383
351.9649863
353.7314663
355.0552531
355.9124423
356.2952519
356.3277469
356.0336549
355.4514505
354.6291329
353.6061436
352.4141066
351.0779637
349.6177579
348.0503203
346.3906532
344.6529872
342.8515563
341.0011049
339.1171297
337.2158701
335.3140742
333.4285851
331.5758029
329.7710905
328.0281951
326.358757
324.7719647
323.27439
321.8700133
320.560421
319.3451352
318.2220257
317.1877486
316.2381644
315.3687012
314.5746387
313.8513102
313.1942247
312.5991251
312.0619978
311.579054
311.1466967
310.7614874
310.4201202
310.1194073
309.8562769
309.6277828
309.431122
309.2636576
309.122945
309.0067581
308.9131162
308.8403113
308.7869356
308.7519046
308.7344306
313.4769344
313.594312
313.8275878
314.1736492
314.6279618
315.1859716
315.8433523
316.595899
317.4392826
318.3687857
319.3790833
320.4640888
321.6168601
322.8295386
324.093285
325.398172
326.7330144
328.0851544
329.4402937
330.7825525
332.0950179
333.3610208
334.5661138
335.70025
336.7588772
337.742128
338.6528624
339.4947387
340.2709544
340.9835964
341.6334888
342.2202099
342.7421674
343.196629
343.5797267
343.8864375
344.1103838
344.2432488
344.2734432
344.2169589
344.0520032
343.7459629
343.3022049
342.7107655
341.9635927
341.0560232
339.9881804
338.7662327
337.4032476
335.9194362
334.341683
332.7023903
331.0377885
329.3859525
327.7847847
326.2701937
324.8746297
323.6260658
322.5474399
321.6565141
320.9660525
320.4842231
320.2178828
320.1637633
320.3184062
320.6769489
321.2297325
321.9642665
322.866037
323.9199412
325.1125327
326.4351419
327.8876177
329.4818822
331.2437245
333.2106079
335.4234019
337.9118399
340.6774534
343.6816125
346.8448459
350.0541599
353.1686151
356.0209114
358.4369151
360.2716776
361.4851999
362.0608299
362.1629137
361.8710204
361.2438018
360.3529651
359.2518348
357.9797281
356.5651627
355.0285905
353.3852137
351.6472121
349.825379
347.9302855
345.9731137
343.9662092
341.9233638
339.859837
337.7921361
335.7375818
333.713705
331.7375357
329.8248618
327.9895434
326.2429631
324.5936715
323.0472617
321.6064673
320.2714541
319.040248
317.9092351
316.8736716
315.9281492
315.0669823
314.2844982
313.5752302
312.9340232
312.3560717
311.8369104
311.3723794
310.9585789
310.5918278
310.2686328
309.98567
309.7397817
309.5279831
309.3474783
309.1956811
309.0702394
308.9690607
308.8903408
308.8325927
308.7946726
308.7757558
313.9779417
314.1080968
314.3664955
314.74919
315.250643
315.8652957
316.5878863
317.4133728
318.3367036
319.3525757
320.4552481
321.6384259
322.8951898
324.2179186
325.5981276
327.0261478
328.4905919
329.9776263
331.4701992
332.9475825
334.3858181
335.7597906
337.0472018
338.2337027
339.3158031
340.2991132
341.1937451
342.0101884
342.7570856
343.4402739
344.0630068
344.6262802
345.1292459
345.5695047
345.9432708
346.2454818
346.4696552
346.6072702
346.6459723
346.5978155
346.4496046
346.1620267
345.73643
345.1609943
344.4249153
343.5201619
342.4431715
341.1965005
339.7901356
338.2421932
336.5788248
334.8332871
333.0442948
331.2538959
329.5051589
327.8399411
326.2969455
324.9102044
323.708063
322.7126717
321.9399336
321.3997983
321.0998029
321.0360509
321.2031855
321.5944441
322.1975259
322.9972449
323.976849
325.1201743
326.414886
327.8568629
329.4553075
331.2372965
333.2492936
335.5521248
338.2062766
341.2478936
344.6632319
348.3763036
352.2593785
356.1526182
359.8667153
363.1596497
365.7637995
367.4678848
368.2734265
368.4217327
368.0622855
367.3077055
366.2768969
365.0421889
363.6499739
362.1308594
360.5046859
358.7840755
356.9773963
355.090956
353.1305261
351.1023909
349.0141098
346.8750507
344.6966925
342.4926929
340.2787168
338.0720315
335.8908887
333.7537401
331.6783611
329.6809756
327.7754835
325.9728789
324.2809195
322.7040688
321.2436947
319.8984705
318.664909
317.5379497
316.5115306
315.5790895
314.7339622
313.9696665
313.2800766
312.6595061
312.1027219
311.6049157
311.1616529
310.7688176
310.4225645
310.1192844
309.8555847
309.6282838
309.4344176
309.2712539
309.1363121
309.0273883
308.9425829
308.8803314
308.8394325
308.8190268
314.5081569
314.6515971
314.9360486
315.3566276
315.9066959
316.5796086
317.3691302
318.2694165
319.2748385
320.3798045
321.5786508
322.8656033
324.2347539
325.6799541
327.194486
328.7703666
330.3971668
332.0603262
333.7391626
335.4051657
337.021734
338.547222
339.9427289
341.1842789
342.2705535
343.2190201
344.0544155
344.7999296
345.4737125
346.0872948
346.6472583
347.1561753
347.6137161
348.0174227
348.3631437
348.6453558
348.8571156
348.9894098
349.0288193
348.9844047
348.8478404
348.5787951
348.1723338
347.6165659
346.8978398
346.0045646
344.9291066
343.6697932
342.2326973
340.6328615
338.8946862
337.0513514
335.1433307
333.2162195
331.318184
329.4973323
327.799256
326.2649264
324.9290872
323.8192335
322.9551943
322.3492398
322.0097611
321.9324297
322.1094787
322.5320012
323.1846691
324.0493167
325.1069187
326.3406678
327.7404885
329.3090521
331.068661
333.0670679
335.3784504
338.0941171
341.2980944
345.0287929
349.2413221
353.7984726
358.507825
363.16821
367.5611167
371.3215504
373.9708695
375.1106251
375.2909168
374.738109
373.7095736
372.413976
370.9534463
369.3756423
367.7064263
365.9606079
364.1458248
362.2654019
360.3203621
358.311023
356.2381198
354.1035926
351.9112072
349.66704
347.3798059
345.0609995
342.7248214
340.3878612
338.0685306
335.7862677
333.5605747
331.4099829
329.3510614
327.3975856
325.5599583
323.8449394
322.2556895
320.7920899
319.4512671
318.2282323
317.1165487
316.1089512
315.197867
314.3758109
313.635649
312.9707468
312.3750235
311.8429408
311.369455
310.9499518
310.5801841
310.256219
309.9744022
309.7313375
309.5238817
309.3491502
309.204532
309.0877112
308.996694
308.9298406
308.8858949
308.8639652
315.0631873
315.220193
315.5311793
315.9902544
316.5896274
317.3215517
318.1788722
319.1551118
320.244401
321.4414268
322.7414644
324.1404742
325.6351622
327.2228315
328.9008001
330.6651237
332.5083898
334.416451
336.3642416
338.3114324
340.1997612
341.9562806
343.507393
344.8080092
345.8616227
346.7124613
347.4144257
348.0132537
348.5435559
349.0246568
349.4672286
349.8750442
350.2474709
350.5811116
350.870606
351.1092259
351.2889253
351.3996416
351.4264036
351.378145
351.2442115
350.9873349
350.5978967
350.0623609
349.3644087
348.4888773
347.4238397
346.162919
344.707536
343.0687039
341.2679955
339.3374447
337.3183558
335.2592035
333.2129318
331.233976
329.3752825
327.6855487
326.2068956
324.9731676
324.0089893
323.3295784
322.944413
322.8490122
323.0326747
323.4841273