/*--------------------------------*- C++ -*----------------------------------*\
| =========                 |                                                 |
| \\      /  F ield         | OpenFOAM: The Open Source CFD Toolbox           |
|  \\    /   O peration     | Version:  2412                                  |
|   \\  /    A nd           | Website:  www.openfoam.com                      |
|    \\/     M anipulation  |                                                 |
\*---------------------------------------------------------------------------*/
FoamFile
{
    version     2.0;
    format      ascii;
    arch        "LSB;label=32;scalar=64";
    class       volVectorField;
    location    "0.1";
    object      U;
}
// * * * * * * * * * * * * * * * * * * * * * * * * * * * * * * * * * * * * * //

dimensions      [0 1 -1 0 0 0 0];

internalField   nonuniform List<vector> 
12008
(
(-1.450098516e-05 1.131878235e-05 0)
(-8.641229136e-05 2.303527023e-05 0)
(-0.0001854546165 2.717860781e-05 0)
(-0.0002861947862 2.689545016e-05 0)
(-0.0003743596668 2.502773187e-05 0)
(-0.0004447773478 2.257450663e-05 0)
(-0.0004948704155 1.988082602e-05 0)
(-0.0005228019353 1.697136358e-05 0)
(-0.0005267442571 1.37622407e-05 0)
(-0.0005046541361 1.015680185e-05 0)
(-0.0004543209051 6.079894601e-06 0)
(-0.0003735289278 1.495208564e-06 0)
(-0.0002602338382 -3.592688955e-06 0)
(-0.0001127414045 -9.143697124e-06 0)
(7.010801658e-05 -1.50759565e-05 0)
(0.0002887611781 -2.126445752e-05 0)
(0.0005427802079 -2.754024097e-05 0)
(0.0008306894139 -3.369412325e-05 0)
(0.001149857731 -3.948361893e-05 0)
(0.00149642829 -4.464347752e-05 0)
(0.001865313118 -4.890287216e-05 0)
(0.002250270874 -5.20072988e-05 0)
(0.002644066698 -5.373849758e-05 0)
(0.003038708913 -5.393292811e-05 0)
(0.003425755949 -5.250124425e-05 0)
(0.003796669173 -4.94394087e-05 0)
(0.004143174455 -4.482507968e-05 0)
(0.004457608395 -3.881475551e-05 0)
(0.0047332293 -3.163928918e-05 0)
(0.004964385491 -2.356970378e-05 0)
(0.005146828735 -1.471551065e-05 0)
(0.00527686263 -5.07070976e-06 0)
(0.005351980625 4.887683845e-06 0)
(0.005371651393 1.455986667e-05 0)
(0.005337386994 2.367003566e-05 0)
(0.005251990994 3.202752472e-05 0)
(0.005119339195 3.948362591e-05 0)
(0.004944184532 4.592429054e-05 0)
(0.00473188551 5.129194429e-05 0)
(0.004488303543 5.55305668e-05 0)
(0.004219529205 5.865419899e-05 0)
(0.003931627974 6.067893101e-05 0)
(0.003630586631 6.16697411e-05 0)
(0.003322103171 6.170322031e-05 0)
(0.003011478621 6.086691249e-05 0)
(0.002703530688 5.926250532e-05 0)
(0.00240254498 5.700259473e-05 0)
(0.002112266385 5.419640233e-05 0)
(0.001835928734 5.09378009e-05 0)
(0.001576304104 4.730337048e-05 0)
(0.001335763135 4.335917801e-05 0)
(0.001116336129 3.91641524e-05 0)
(0.0009197536716 3.476412767e-05 0)
(0.0007474326358 3.020343553e-05 0)
(0.0006003668956 2.561627192e-05 0)
(0.0004788743965 2.114371263e-05 0)
(0.0003827589234 1.682096979e-05 0)
(0.0003115362084 1.267842931e-05 0)
(0.0002643481323 8.798180079e-06 0)
(0.0002398517483 5.276767772e-06 0)
(0.0002362027923 2.21051872e-06 0)
(0.0002510841092 -3.10063031e-07 0)
(0.0002817656487 -2.207676158e-06 0)
(0.000325159496 -3.414478452e-06 0)
(0.0003779533621 -3.885797849e-06 0)
(0.0004367427072 -3.58771492e-06 0)
(0.0004980891818 -2.515465187e-06 0)
(0.0005586187952 -6.82483849e-07 0)
(0.0006151024457 1.886097546e-06 0)
(0.0006644993133 5.154528827e-06 0)
(0.0007039811335 9.077820914e-06 0)
(0.0007309354544 1.36055305e-05 0)
(0.0007429610613 1.868068876e-05 0)
(0.0007378690639 2.423790296e-05 0)
(0.000713698602 3.019803043e-05 0)
(0.0006687545473 3.646577626e-05 0)
(0.0006016741569 4.292848128e-05 0)
(0.0005115208008 4.945295689e-05 0)
(0.0003979052681 5.588088159e-05 0)
(0.0002611193655 6.203136287e-05 0)
(0.000102258963 6.771231204e-05 0)
(-7.66745041e-05 7.272721648e-05 0)
(-0.0002727045692 7.687938312e-05 0)
(-0.0004818726917 7.998276129e-05 0)
(-0.0006993076144 8.188171167e-05 0)
(-0.0009193667167 8.246383356e-05 0)
(-0.001135854922 8.166877363e-05 0)
(-0.001342313594 7.949732312e-05 0)
(-0.001532351967 7.601164768e-05 0)
(-0.001700001209 7.133220833e-05 0)
(-0.001840037204 6.563316393e-05 0)
(-0.001948249785 5.912688413e-05 0)
(-0.00202168533 5.206850223e-05 0)
(-0.002058876706 4.475550312e-05 0)
(-0.002059959396 3.750152746e-05 0)
(-0.002026591169 3.059281457e-05 0)
(-0.001961613616 2.423371874e-05 0)
(-0.00186878381 1.855837119e-05 0)
(-0.001752450933 1.364780734e-05 0)
(-0.001617507875 9.538265807e-06 0)
(-0.001469149852 6.243704698e-06 0)
(-0.001312573268 3.743372671e-06 0)
(-0.001152817398 1.992999162e-06 0)
(-0.0009945764529 9.215632329e-07 0)
(-0.000842015024 4.377464153e-07 0)
(-0.0006986372737 4.350770262e-07 0)
(-0.0005672018976 7.877763998e-07 0)
(-0.0004496851704 1.364489639e-06 0)
(-0.0003472931514 2.046387395e-06 0)
(-0.0002605201107 2.732180212e-06 0)
(-0.0001892156803 3.337480871e-06 0)
(-0.0001326895464 3.791901194e-06 0)
(-8.983328024e-05 4.042977262e-06 0)
(-5.92372515e-05 4.06210889e-06 0)
(-3.93099958e-05 3.842907198e-06 0)
(-2.838798507e-05 3.3916203e-06 0)
(-2.481087675e-05 2.721219666e-06 0)
(-2.698906473e-05 1.854375986e-06 0)
(-3.345972197e-05 8.275730235e-07 0)
(-4.291479785e-05 -3.210609781e-07 0)
(-5.419962169e-05 -1.564442491e-06 0)
(-6.631988618e-05 -2.875248882e-06 0)
(-7.845407374e-05 -4.215965488e-06 0)
(-8.993827934e-05 -5.55426666e-06 0)
(-0.0001002397495 -6.874437201e-06 0)
(-0.0001089477681 -8.161789052e-06 0)
(-0.0001157675567 -9.39422781e-06 0)
(-0.0001204906076 -1.055715912e-05 0)
(-0.0001229602996 -1.165137455e-05 0)
(-0.0001230479861 -1.268259028e-05 0)
(-0.0001206154399 -1.365838202e-05 0)
(-0.0001154709609 -1.459869271e-05 0)
(-0.0001073334555 -1.553355087e-05 0)
(-9.583663629e-05 -1.648887318e-05 0)
(-8.06107933e-05 -1.746117466e-05 0)
(-6.153466829e-05 -1.836103357e-05 0)
(-3.919575319e-05 -1.893512557e-05 0)
(-1.566686086e-05 -1.870867059e-05 0)
(3.567875188e-06 -1.667523856e-05 0)
(7.127860316e-06 -8.973031045e-06 0)
(-2.611904362e-05 7.694646876e-05 0)
(-0.0001630593243 0.0001538740506 0)
(-0.0003359566098 0.0001739338833 0)
(-0.0005020814947 0.0001612099426 0)
(-0.0006353460083 0.0001329971699 0)
(-0.0007247124231 9.763701421e-05 0)
(-0.0007638086782 5.825223775e-05 0)
(-0.0007478422266 1.552731202e-05 0)
(-0.0006722829101 -3.075127191e-05 0)
(-0.0005324485844 -8.090894534e-05 0)
(-0.0003236302972 -0.0001350553061 0)
(-4.135875766e-05 -0.0001930143471 0)
(0.0003183003083 -0.0002542921235 0)
(0.0007582995158 -0.000318044797 0)
(0.001280233098 -0.0003830880051 0)
(0.001883962102 -0.000447908747 0)
(0.002567270662 -0.0005106943795 0)
(0.00332557251 -0.0005693825612 0)
(0.004151696302 -0.0006217400773 0)
(0.005035783908 -0.0006654720969 0)
(0.005965325575 -0.0006983543466 0)
(0.006925358236 -0.0007183860502 0)
(0.007898830793 -0.0007239421768 0)
(0.008867126721 -0.0007139058125 0)
(0.009810715814 -0.0006877687881 0)
(0.01070988659 -0.0006456865503 0)
(0.01154549765 -0.0005884722951 0)
(0.0122996913 -0.0005175363386 0)
(0.01295651556 -0.0004347771402 0)
(0.0135024871 -0.0003424194664 0)
(0.01392636873 -0.0002426331367 0)
(0.01422075628 -0.0001371354929 0)
(0.01438108321 -2.86105134e-05 0)
(0.01440398032 7.91735339e-05 0)
(0.01429156519 0.0001830938523 0)
(0.01404916406 0.0002807715749 0)
(0.01368487351 0.0003702597276 0)
(0.01320920235 0.0004499984692 0)
(0.01263447225 0.0005188693017 0)
(0.01197452725 0.0005760463847 0)
(0.01124416144 0.0006211899638 0)
(0.01045855748 0.0006542170184 0)
(0.009633049835 0.0006754229097 0)
(0.00878258303 0.000685375859 0)
(0.007921390212 0.0006848604287 0)
(0.007062709783 0.0006748203971 0)
(0.006218580118 0.0006562948972 0)
(0.005399728864 0.0006303481967 0)
(0.004615547458 0.0005980036966 0)
(0.003874129498 0.0005601993797 0)
(0.003182355444 0.0005177765556 0)
(0.002545983789 0.0004715037066 0)
(0.001969738837 0.0004221256038 0)
(0.001457337611 0.0003704794705 0)
(0.001011121492 0.0003177190174 0)
(0.0006323173672 0.0002651457497 0)
(0.0003202558418 0.000213647038 0)
(7.304842882e-05 0.0001639309109 0)
(-0.0001121500541 0.0001169401605 0)
(-0.0002394452664 7.36853563e-05 0)
(-0.0003141744478 3.51482875e-05 0)
(-0.0003428048732 2.212411618e-06 0)
(-0.0003327599151 -2.439189695e-05 0)
(-0.0002922401929 -4.412053736e-05 0)
(-0.0002298849342 -5.668084525e-05 0)
(-0.000154440638 -6.197803044e-05 0)
(-7.45620958e-05 -6.014435422e-05 0)
(1.460912301e-06 -5.149852858e-05 0)
(6.592356466e-05 -3.649595697e-05 0)
(0.0001118425052 -1.567920887e-05 0)
(0.0001330340446 1.03651238e-05 0)
(0.000124136409 4.103982703e-05 0)
(8.059635574e-05 7.575398663e-05 0)
(-1.358342418e-06 0.0001139191896 0)
(-0.0001247387362 0.0001549253942 0)
(-0.0002917826586 0.0001981043743 0)
(-0.0005038973521 0.0002426854897 0)
(-0.0007615465986 0.0002877521098 0)
(-0.001064086018 0.000332206217 0)
(-0.001409560811 0.0003747480358 0)
(-0.001794495862 0.0004138936831 0)
(-0.002213709956 0.0004480183026 0)
(-0.002660184256 0.0004754268182 0)
(-0.003125033832 0.0004944529767 0)
(-0.003597615589 0.0005035911724 0)
(-0.00406578545 0.000501637482 0)
(-0.004516315808 0.0004878228798 0)
(-0.004935471212 0.0004619255101 0)
(-0.005309684191 0.0004243327029 0)
(-0.005626301506 0.0003760541978 0)
(-0.005874311877 0.0003186778962 0)
(-0.006044940129 0.0002542644929 0)
(-0.006132177478 0.0001853172117 0)
(-0.00613329964 0.0001147024752 0)
(-0.006049155127 4.537162098e-05 0)
(-0.005883891028 -1.999376093e-05 0)
(-0.005644191674 -7.93797545e-05 0)
(-0.00533903766 -0.0001314837603 0)
(-0.004978354648 -0.0001751775856 0)
(-0.004573865107 -0.0002095445539 0)
(-0.004138066353 -0.0002341134283 0)
(-0.003683805839 -0.0002488896076 0)
(-0.003223629002 -0.0002543023574 0)
(-0.002769251482 -0.0002511511635 0)
(-0.00233117214 -0.0002405332359 0)
(-0.00191834326 -0.0002237607415 0)
(-0.001537945829 -0.0002022773769 0)
(-0.001195285923 -0.0001775707765 0)
(-0.0008937892865 -0.0001510867644 0)
(-0.0006350865019 -0.0001241517137 0)
(-0.0004191809019 -9.792797859e-05 0)
(-0.0002446604544 -7.337722146e-05 0)
(-0.0001089671461 -5.123224533e-05 0)
(-8.686509844e-06 -3.199352393e-05 0)
(6.018171171e-05 -1.593533718e-05 0)
(0.0001019482213 -3.140424657e-06 0)
(0.0001209965548 6.46106116e-06 0)
(0.000121604826 1.305197362e-05 0)
(0.0001077990835 1.690010622e-05 0)
(8.327124377e-05 1.832618772e-05 0)
(5.133109002e-05 1.766758913e-05 0)
(1.487759824e-05 1.526047076e-05 0)
(-2.361362067e-05 1.144087128e-05 0)
(-6.207164449e-05 6.529672113e-06 0)
(-9.879709794e-05 8.088117244e-07 0)
(-0.0001324359103 -5.478409815e-06 0)
(-0.000161942205 -1.212249182e-05 0)
(-0.0001865152074 -1.89594838e-05 0)
(-0.0002055326196 -2.589257179e-05 0)
(-0.0002184833039 -3.289865916e-05 0)
(-0.0002248820895 -4.002804122e-05 0)
(-0.0002241792615 -4.740168123e-05 0)
(-0.0002157052744 -5.516986043e-05 0)
(-0.000198709082 -6.339854007e-05 0)
(-0.0001725617376 -7.184620879e-05 0)
(-0.0001372692848 -7.959437717e-05 0)
(-9.433905295e-05 -8.453208854e-05 0)
(-4.80959423e-05 -8.279247388e-05 0)
(-8.475359718e-06 -6.839273819e-05 0)
(8.103962177e-06 -3.307175363e-05 0)
(-2.924170173e-05 0.0001699013701 0)
(-0.0001825005805 0.0003207209532 0)
(-0.0003654591562 0.0003490693117 0)
(-0.0005296316883 0.0003085929488 0)
(-0.0006441221181 0.0002334110464 0)
(-0.000694777892 0.0001406024531 0)
(-0.0006726439921 3.700598205e-05 0)
(-0.0005706876627 -7.554208081e-05 0)
(-0.0003824255649 -0.0001970719055 0)
(-0.0001015558633 -0.0003278523614 0)
(0.0002782415607 -0.0004678641641 0)
(0.0007628001617 -0.0006163949666 0)
(0.00135701943 -0.0007719572707 0)
(0.002064347716 -0.0009322601884 0)
(0.002886275178 -0.001094227597 0)
(0.003821843358 -0.00125403895 0)
(0.004867196251 -0.00140720839 0)
(0.006015205904 -0.001548715132 0)
(0.007255201456 -0.001673196207 0)
(0.008572848304 -0.001775200591 0)
(0.009950209716 -0.001849499889 0)
(0.01136602289 -0.001891431471 0)
(0.01279619665 -0.001897238637 0)
(0.01421451128 -0.00186436848 0)
(0.0155934908 -0.001791692162 0)
(0.01690538133 -0.001679615465 0)
(0.01812315311 -0.001530064264 0)
(0.01922145401 -0.00134634389 0)
(0.02017745051 -0.001132895364 0)
(0.02097154519 -0.0008949685339 0)
(0.02158795178 -0.0006383502293 0)
(0.02201366673 -0.0003684679987 0)
(0.02224385324 -9.102308083e-05 0)
(0.02227270586 0.0001865087174 0)
(0.02210138772 0.0004562708655 0)
(0.02173608475 0.0007120632494 0)
(0.02118692816 0.0009487066276 0)
(0.02046774886 0.001161926476 0)
(0.01959529923 0.001348448464 0)
(0.01858889745 0.001505812001 0)
(0.01746966534 0.001632639464 0)
(0.01625978291 0.001728300471 0)
(0.01498212416 0.001793096627 0)
(0.01365939445 0.00182808064 0)
(0.01231362341 0.001834939251 0)
(0.01096565927 0.001815852368 0)
(0.009634757463 0.001773332851 0)
(0.008338291571 0.001710060987 0)
(0.007091594983 0.001628726979 0)
(0.005907911669 0.001531911608 0)
(0.004798434984 0.001422027487 0)
(0.003772385417 0.001301338586 0)
(0.002837124779 0.001172059343 0)
(0.001998301131 0.001036514588 0)
(0.001259473323 0.0008974647128 0)
(0.0006225939702 0.0007583324528 0)
(8.70599093e-05 0.0006221908151 0)
(-0.0003509829469 0.0004912281669 0)
(-0.000696587086 0.000367930512 0)
(-0.0009567149293 0.0002549067789 0)
(-0.001140132314 0.0001546547063 0)
(-0.001257230259 6.938699373e-05 0)
(-0.001319742434 8.880222441e-07 0)
(-0.001340459851 -4.957901927e-05 0)
(-0.001332700642 -8.140517486e-05 0)
(-0.001309809345 -9.454905685e-05 0)
(-0.001284823228 -8.957888177e-05 0)
(-0.001270006784 -6.756595224e-05 0)
(-0.001276498597 -2.996699747e-05 0)
(-0.001314065619 2.150610829e-05 0)
(-0.001390946786 8.501426551e-05 0)
(-0.001513793701 0.000158691893 0)
(-0.00168768525 0.0002407147991 0)
(-0.00191618934 0.0003293183785 0)
(-0.002201442996 0.0004227729055 0)
(-0.002544222164 0.0005193166661 0)
(-0.002943977473 0.0006170657601 0)
(-0.003398815755 0.0007139132911 0)
(-0.00390541742 0.0008074378279 0)
(-0.004458895204 0.0008948452811 0)
(-0.005052627165 0.0009729684413 0)
(-0.005678092198 0.001038335399 0)
(-0.006324745197 0.001087309286 0)
(-0.006979988605 0.00111629755 0)
(-0.00762928594 0.001122030852 0)
(-0.008256451313 0.001101882428 0)
(-0.008844134738 0.001054188397 0)
(-0.009374512872 0.0009785229589 0)
(-0.009830127818 0.0008758660444 0)
(-0.0101948311 0.0007486517843 0)
(-0.01045477005 0.000600698451 0)
(-0.01059915292 0.000436957564 0)
(-0.01062086794 0.0002634475248 0)
(-0.01051733023 8.711442254e-05 0)
(-0.01029088691 -8.481063369e-05 0)
(-0.009948644859 -0.0002465259703 0)
(-0.009499468988 -0.0003936583122 0)
(-0.008955272028 -0.0005223174419 0)
(-0.008331699194 -0.000629307503 0)
(-0.007645886012 -0.0007122698597 0)
(-0.006916142246 -0.0007699742754 0)
(-0.00616114784 -0.0008023357166 0)
(-0.005399193343 -0.0008103552976 0)
(-0.004647493119 -0.000795983955 0)
(-0.003921599278 -0.0007619373132 0)
(-0.00323493493 -0.0007114927862 0)
(-0.002598458375 -0.0006482826341 0)
(-0.002020477253 -0.000576080198 0)
(-0.001506610886 -0.000498594582 0)
(-0.001059876297 -0.0004192941028 0)
(-0.0006808831936 -0.0003412624877 0)
(-0.0003681135691 -0.0002671018192 0)
(-0.0001182678433 -0.0001988647856 0)
(7.334827804e-05 -0.0001380283205 0)
(0.0002124513261 -8.551805445e-05 0)
(0.0003053907052 -4.174028061e-05 0)
(0.0003588049269 -6.647786614e-06 0)
(0.0003792894729 2.012530449e-05 0)
(0.0003731617672 3.918123711e-05 0)
(0.0003462925399 5.127596737e-05 0)
(0.0003040247294 5.724508221e-05 0)
(0.0002511175601 5.795393129e-05 0)
(0.0001917134561 5.426642283e-05 0)
(0.0001293452634 4.701240239e-05 0)
(6.697711739e-05 3.695366579e-05 0)
(7.043465546e-06 2.476478019e-05 0)
(-4.850480961e-05 1.102462573e-05 0)
(-9.812174129e-05 -3.808423874e-06 0)
(-0.0001405710218 -1.942695515e-05 0)
(-0.00017482698 -3.569547221e-05 0)
(-0.000199968279 -5.265675374e-05 0)
(-0.0002150644607 -7.050475808e-05 0)
(-0.0002191096235 -8.94709539e-05 0)
(-0.0002110785574 -0.0001095567732 0)
(-0.0001901839494 -0.0001300447607 0)
(-0.0001564854399 -0.0001487457931 0)
(-0.000111851381 -0.0001610486922 0)
(-6.131494859e-05 -0.0001590330658 0)
(-1.589490894e-05 -0.0001311444816 0)
(6.776130517e-06 -6.268267171e-05 0)
(-2.853453879e-05 0.0002663304421 0)
(-0.0001746993127 0.0004863742213 0)
(-0.0003396976393 0.0005121935861 0)
(-0.000473124178 0.0004296491005 0)
(-0.0005422353688 0.0002906190452 0)
(-0.0005311698135 0.0001212513249 0)
(-0.000429236335 -6.770240344e-05 0)
(-0.0002278789934 -0.0002729504773 0)
(8.070688288e-05 -0.0004940875389 0)
(0.0005043191043 -0.0007313502366 0)
(0.001050496007 -0.0009843400278 0)
(0.00172610353 -0.001251521879 0)
(0.00253679847 -0.001530048594 0)
(0.003486434759 -0.001815717172 0)
(0.00457646403 -0.002102993143 0)
(0.00580535422 -0.002385087395 0)
(0.007168051369 -0.002654094523 0)
(0.008655521153 -0.002901222144 0)
(0.01025441814 -0.003117122903 0)
(0.011946928 -0.003292331405 0)
(0.01371082759 -0.003417793065 0)
(0.01551980791 -0.003485444431 0)
(0.01734407063 -0.003488794334 0)
(0.01915117894 -0.003423428702 0)
(0.02090711726 -0.003287380753 0)
(0.02257748318 -0.003081315717 0)
(0.0241287132 -0.002808505985 0)
(0.02552924444 -0.002474600262 0)
(0.02675054228 -0.002087225959 0)
(0.02776793759 -0.001655470518 0)
(0.02856143059 -0.001189373557 0)
(0.02911524888 -0.0006994143109 0)
(0.02941964702 -0.0001954369714 0)
(0.02947014138 0.0003106317462 0)
(0.02926536174 0.0008053658163 0)
(0.02881166481 0.001277623806 0)
(0.02812001866 0.001717848347 0)
(0.02720611368 0.002117951711 0)
(0.02608954369 0.002471464629 0)
(0.02479346467 0.002773375017 0)
(0.02334371321 0.003020444795 0)
(0.02176799649 0.003210836636 0)
(0.02009547459 0.003344379914 0)
(0.01835557069 0.003422334833 0)
(0.01657731159 0.003447226253 0)
(0.01478859131 0.003422624235 0)
(0.0130155226 0.003352877452 0)
(0.01128191867 0.003242822777 0)
(0.009608932304 0.003097503649 0)
(0.008014857416 0.002921929307 0)
(0.006515076383 0.002720923008 0)
(0.005122105474 0.002499085187 0)
(0.003845711025 0.002260894853 0)
(0.002693178816 0.002010890664 0)
(0.001669170239 0.001753948016 0)
(0.000775530323 0.001496019871 0)
(1.295414989e-05 0.001243918315 0)
(-0.0006244058333 0.001002477414 0)
(-0.001144143385 0.0007762706962 0)
(-0.001556131807 0.0005700475109 0)
(-0.001872548892 0.0003883162882 0)
(-0.002107597165 0.0002350287199 0)
(-0.002277126438 0.0001133144736 0)
(-0.002398266583 2.529534841e-05 0)
(-0.002488698999 -2.810935291e-05 0)
(-0.00256599754 -4.711259199e-05 0)
(-0.002647167327 -3.308228193e-05 0)
(-0.002747958995 1.16334117e-05 0)
(-0.002882376219 8.391624036e-05 0)
(-0.003062299557 0.0001801280439 0)
(-0.003297240475 0.0002963573505 0)
(-0.00359423083 0.0004286334292 0)
(-0.003957834748 0.0005730859669 0)
(-0.004390257378 0.0007260299827 0)
(-0.004891517122 0.0008839711796 0)
(-0.005459645665 0.001043536132 0)
(-0.006090878271 0.001201344563 0)
(-0.006779806594 0.00135384718 0)
(-0.007519463451 0.001497164657 0)
(-0.008301323071 0.001626956894 0)
(-0.009115234389 0.001738371549 0)
(-0.009949319871 0.001826105595 0)
(-0.0107898751 0.001884586289 0)
(-0.01162132134 0.001908275605 0)
(-0.01242626862 0.001892092783 0)
(-0.01318575339 0.001831940411 0)
(-0.01387969842 0.001725254642 0)
(-0.01448763156 0.001571500176 0)
(-0.01498960896 0.001372496531 0)
(-0.01536730313 0.001132528036 0)
(-0.01560523869 0.0008582438392 0)
(-0.01569161941 0.000558260049 0)
(-0.01561895633 0.0002431066846 0)
(-0.01538531845 -7.482088543e-05 0)
(-0.01499606668 -0.0003836698739 0)
(-0.01445786922 -0.0006741824289 0)
(-0.01378280242 -0.0009383332724 0)
(-0.01298759582 -0.001168672008 0)
(-0.0120917656 -0.001359193467 0)
(-0.01111708534 -0.001505805318 0)
(-0.01008673468 -0.001606368584 0)
(-0.009024352899 -0.00166070954 0)
(-0.007953157006 -0.001670528432 0)
(-0.006895109244 -0.001639194463 0)
(-0.005870197283 -0.001571453201 0)
(-0.004895856672 -0.001473082834 0)
(-0.003986554086 -0.001350522473 0)
(-0.003153536869 -0.001210508148 0)
(-0.002404748572 -0.00105972367 0)
(-0.001744901141 -0.0009044863583 0)
(-0.001175673238 -0.000750492646 0)
(-0.0006960116024 -0.0006026278626 0)
(-0.0003025154555 -0.0004648416304 0)
(1.013309427e-05 -0.0003400935055 0)
(0.000248715979 -0.0002303599272 0)
(0.0004210076895 -0.0001366878567 0)
(0.0005353750238 -5.931525537e-05 0)
(0.0006004085875 2.245762825e-06 0)
(0.0006244885071 4.89601235e-05 0)
(0.0006155197365 8.210825117e-05 0)
(0.0005807762776 0.0001031566503 0)
(0.0005268256433 0.000113653896 0)
(0.0004594793506 0.0001151600312 0)
(0.0003837809328 0.0001091943491 0)
(0.0003040339244 9.717995591e-05 0)
(0.0002238525979 8.039584785e-05 0)
(0.0001462187237 5.994870371e-05 0)
(7.355855153e-05 3.673830724e-05 0)
(7.85081578e-06 1.141012891e-05 0)
(-4.925279463e-05 -1.568461122e-05 0)
(-9.630259783e-05 -4.449799621e-05 0)
(-0.0001319329097 -7.522503334e-05 0)
(-0.0001547784931 -0.0001081047801 0)
(-0.0001635214903 -0.0001429886802 0)
(-0.0001571536696 -0.0001785766374 0)
(-0.0001355689618 -0.0002112868851 0)
(-0.0001004969823 -0.0002338868722 0)
(-5.678052287e-05 -0.0002343062172 0)
(-1.525040534e-05 -0.0001952117277 0)
(6.545054574e-06 -9.429952763e-05 0)
(-2.656919738e-05 0.000355630312 0)
(-0.0001572511401 0.0006327979742 0)
(-0.0002940359885 0.0006437870793 0)
(-0.0003863397591 0.0005059157968 0)
(-0.0004008577747 0.000288729845 0)
(-0.000320653516 2.724202803e-05 0)
(-0.0001338930781 -0.0002638442487 0)
(0.0001690562879 -0.0005797836478 0)
(0.0005973890172 -0.000919891462 0)
(0.001160131138 -0.00128418198 0)
(0.001865979389 -0.001671746769 0)
(0.00272283525 -0.002080037024 0)
(0.003737201658 -0.002504592113 0)
(0.004913516395 -0.002938963839 0)
(0.006253465387 -0.003374741926 0)
(0.007755303814 -0.003801658597 0)
(0.009413214994 -0.004207791948 0)
(0.01121674897 -0.004579899728 0)
(0.0131504003 -0.004903908126 0)
(0.01519338396 -0.005165563391 0)
(0.01731967055 -0.005351219236 0)
(0.01949833498 -0.005448707663 0)
(0.02169424923 -0.005448214015 0)
(0.02386909837 -0.005343043029 0)
(0.0259826586 -0.00513017692 0)
(0.02799423741 -0.004810546524 0)
(0.02986414724 -0.004388988222 0)
(0.03155508881 -0.003873905781 0)
(0.03303335574 -0.003276686905 0)
(0.03426979621 -0.002610969187 0)
(0.03524064466 -0.001891853167 0)
(0.03592769247 -0.001135229958 0)
(0.03631741056 -0.0003560895089 0)
(0.03640605516 0.0004281865174 0)
(0.03618973294 0.001198345939 0)
(0.03567474577 0.001937559867 0)
(0.03487233782 0.002631042478 0)
(0.03379927161 0.003266007002 0)
(0.03247703294 0.003831878362 0)
(0.03093156601 0.004320210807 0)
(0.02919231544 0.00472503655 0)
(0.02729147786 0.005042535982 0)
(0.02526359538 0.005271413045 0)
(0.02314404697 0.005412646997 0)
(0.02096828461 0.005469313303 0)
(0.01877086884 0.005446317165 0)
(0.01658455961 0.005350029386 0)
(0.01443953287 0.005187861321 0)
(0.01236276982 0.004967824814 0)
(0.01037764784 0.004698126849 0)
(0.008503744447 0.00438686448 0)
(0.00675682222 0.004041867286 0)
(0.005148946551 0.003670726144 0)
(0.003688764907 0.003280980052 0)
(0.002381791875 0.002880310779 0)
(0.001229587255 0.00247723085 0)
(0.0002329298424 0.002082677523 0)
(-0.0006133788867 0.001706396182 0)
(-0.001320164927 0.001355710732 0)
(-0.00190034213 0.001037911233 0)
(-0.002369535263 0.0007599123285 0)
(-0.002745732525 0.0005277218832 0)
(-0.003048826867 0.000346041643 0)
(-0.003300171221 0.0002179364588 0)
(-0.00352167616 0.0001445860224 0)
(-0.003734986226 0.0001252689254 0)
(-0.003960860856 0.0001573957395 0)
(-0.004218264791 0.0002367450252 0)
(-0.004523707525 0.0003577929937 0)
(-0.004890720317 0.0005141159571 0)
(-0.005329506894 0.0006988019418 0)
(-0.005846781288 0.0009048335585 0)
(-0.006445788991 0.001125394503 0)
(-0.007126490034 0.001354076298 0)
(-0.007885870287 0.001584966424 0)
(-0.008718334416 0.001812614709 0)
(-0.00961612919 0.002031889261 0)
(-0.0105697412 0.002237749028 0)
(-0.01156821428 0.002424980169 0)
(-0.0125993396 0.00258794861 0)
(-0.01364970498 0.002720437216 0)
(-0.01470463076 0.002815633835 0)
(-0.01574803473 0.002866299408 0)
(-0.01676227859 0.002865118755 0)
(-0.01772805972 0.002805247902 0)
(-0.01862446573 0.002681070102 0)
(-0.01942930845 0.002489034664 0)
(-0.02011982458 0.002228473813 0)
(-0.02067371047 0.001902170108 0)
(-0.02107041991 0.001516555151 0)
(-0.02129272685 0.001081592837 0)
(-0.02132760067 0.0006101875486 0)
(-0.02116663425 0.0001183209367 0)
(-0.02080934075 -0.0003753542622 0)
(-0.02026153518 -0.0008542867225 0)
(-0.01953050945 -0.001304670249 0)
(-0.01863310046 -0.001713393745 0)
(-0.01758907019 -0.002069045457 0)
(-0.01642181244 -0.002362702817 0)
(-0.01515740093 -0.00258820057 0)
(-0.01382354675 -0.002742274818 0)
(-0.01244856592 -0.002824593997 0)
(-0.01106034816 -0.002837626663 0)
(-0.009685392958 -0.002786351163 0)
(-0.008347966424 -0.002677840545 0)
(-0.007069426573 -0.0025207576 0)
(-0.005867734376 -0.002324810426 0)
(-0.004757158214 -0.002100203913 0)
(-0.003748156162 -0.001857130383 0)
(-0.002847432008 -0.001605307095 0)
(-0.002058134877 -0.001353595006 0)
(-0.001380163314 -0.001109708083 0)
(-0.0008105625855 -0.0008800150146 0)
(-0.000343982406 -0.0006694340992 0)
(2.683651187e-05 -0.0004814253382 0)
(0.0003105634639 -0.0003180542956 0)
(0.0005167711264 -0.0001801118518 0)
(0.000655488615 -6.732124909e-05 0)
(0.000736912663 2.155494121e-05 0)
(0.000770857926 8.835062216e-05 0)
(0.0007664678812 0.0001352390015 0)
(0.0007320817953 0.0001645614884 0)
(0.0006751770155 0.0001787052755 0)
(0.0006023373462 0.0001800148356 0)
(0.0005192667046 0.0001707144713 0)
(0.0004308360728 0.0001528370598 0)
(0.0003411476051 0.0001281647812 0)
(0.000253612679 9.817516242e-05 0)
(0.0001710597919 6.39792926e-05 0)
(9.586595817e-05 2.626378136e-05 0)
(3.009523424e-05 -1.472418003e-05 0)
(-2.437178429e-05 -5.908821554e-05 0)
(-6.575209124e-05 -0.0001070014777 0)
(-9.236879787e-05 -0.0001581034508 0)
(-0.0001028853139 -0.0002104805247 0)
(-9.686211223e-05 -0.0002591780469 0)
(-7.56262797e-05 -0.0002944340562 0)
(-4.345474262e-05 -0.0003001765892 0)
(-1.039035046e-05 -0.0002534086581 0)
(6.830612165e-06 -0.0001240053631 0)
(-2.430868522e-05 0.0004361790883 0)
(-0.0001381548074 0.0007567566139 0)
(-0.0002447813995 0.0007402193565 0)
(-0.0002938726283 0.0005340725214 0)
(-0.0002519171578 0.0002251369156 0)
(-0.0001012160911 -0.0001428256251 0)
(0.0001708637308 -0.0005513942112 0)
(0.0005751147598 -0.000994594514 0)
(0.001121907737 -0.001471438305 0)
(0.001821487586 -0.001981720432 0)
(0.002683772702 -0.00252396684 0)
(0.003717834165 -0.003094503297 0)
(0.004931229911 -0.003687077064 0)
(0.006329257805 -0.004292732817 0)
(0.007914168916 -0.004899824 0)
(0.009684372633 -0.005494132769 0)
(0.01163366454 -0.006059131274 0)
(0.01375053015 -0.006576423571 0)
(0.01601758987 -0.007026408047 0)
(0.01841126937 -0.007389174071 0)
(0.02090177636 -0.007645602188 0)
(0.02345346158 -0.007778596424 0)
(0.02602561588 -0.007774330243 0)
(0.02857369583 -0.007623351798 0)
(0.03105089286 -0.007321379196 0)
(0.03340990218 -0.006869675811 0)
(0.03560471091 -0.006274967794 0)
(0.0375922465 -0.005548946026 0)
(0.03933376721 -0.004707447389 0)
(0.04079592401 -0.00376943339 0)
(0.04195159735 -0.002755887155 0)
(0.04278049176 -0.001688766148 0)
(0.04326606389 -0.0005890263003 0)
(0.04340596742 0.0005199649623 0)
(0.04319366959 0.001612913854 0)
(0.04263538741 0.002666662516 0)
(0.04174250985 0.003660556846 0)
(0.0405325186 0.00457640816 0)
(0.03902827897 0.005398758826 0)
(0.03725785761 0.006114932441 0)
(0.03525353066 0.006715379158 0)
(0.03305123778 0.007193477271 0)
(0.03069023083 0.007546049047 0)
(0.02821126737 0.00777316293 0)
(0.02565580517 0.007877995656 0)
(0.02306483323 0.007866563752 0)
(0.02047769658 0.007747296712 0)
(0.01793101927 0.007530490993 0)
(0.01545779139 0.007227688785 0)
(0.01308669055 0.006851064204 0)
(0.01084168026 0.006412893396 0)
(0.008741880944 0.005925200492 0)
(0.006801675701 0.005399632932 0)
(0.005030994956 0.00484757934 0)
(0.003435762316 0.00428041124 0)
(0.002017920693 0.003709862283 0)
(0.0007752497013 0.003149563642 0)
(-0.0002942868567 0.002616141006 0)
(-0.001203659813 0.002121685682 0)
(-0.00196944867 0.00167641273 0)
(-0.002610851802 0.001289912333 0)
(-0.003149741179 0.0009705163809 0)
(-0.003610084922 0.0007246832306 0)
(-0.004017459253 0.0005564945516 0)
(-0.004397991128 0.0004672957953 0)
(-0.004777363347 0.0004555766871 0)
(-0.005179991071 0.0005170394711 0)
(-0.005627879559 0.0006449072449 0)
(-0.006139762231 0.0008304011791 0)
(-0.006730407404 0.001063332487 0)
(-0.007410155319 0.001332743526 0)
(-0.008184711271 0.001627522446 0)
(-0.009055205091 0.001936937346 0)
(-0.01001849667 0.00225103875 0)
(-0.01106769728 0.002560897839 0)
(-0.01219284967 0.002858659077 0)
(-0.01338168722 0.003137400943 0)
(-0.01462037924 0.003390827127 0)
(-0.01589415865 0.003612839706 0)
(-0.01718773162 0.003797081742 0)
(-0.01848541484 0.003936560145 0)
(-0.01977101699 0.00402345784 0)
(-0.0210275285 0.00404919472 0)
(-0.02223667932 0.004004751226 0)
(-0.02337843048 0.003881308699 0)
(-0.02443064103 0.003671302542 0)
(-0.02536913429 0.003369677083 0)
(-0.02616837495 0.002975232216 0)
(-0.02680277663 0.002491581617 0)
(-0.02724840107 0.001927476174 0)
(-0.02748508378 0.001296697793 0)
(-0.02749722928 0.0006170884412 0)
(-0.02727441018 -8.88386198e-05 0)
(-0.02681834848 -0.000796007772 0)
(-0.02612974907 -0.001481345942 0)
(-0.02522283667 -0.002125169717 0)
(-0.02411576 -0.002708860861 0)
(-0.02283157581 -0.003216725346 0)
(-0.02139758752 -0.003636417475 0)
(-0.01984423072 -0.003959316659 0)
(-0.0182039479 -0.004180793636 0)
(-0.01650997093 -0.004300269613 0)
(-0.0147951147 -0.004321043751 0)
(-0.01309065061 -0.004249898709 0)
(-0.01142532789 -0.004096533829 0)
(-0.009824596112 -0.003872873312 0)
(-0.008310053791 -0.003592320624 0)
(-0.00689912275 -0.003269010817 0)
(-0.005604925458 -0.002917115855 0)
(-0.004436345751 -0.002550229122 0)
(-0.003398246085 -0.002180850741 0)
(-0.002491787088 -0.001819993042 0)
(-0.001714835024 -0.001476908136 0)
(-0.001062434236 -0.001158926661 0)
(-0.000527306216 -0.0008714150514 0)
(-0.0001003753665 -0.0006178375184 0)
(0.000228713711 -0.0003998957592 0)
(0.0004710923841 -0.0002177361808 0)
(0.0006381505194 -7.025303297e-05 0)