/*--------------------------------*- C++ -*----------------------------------*\
| =========                 |                                                 |
| \\      /  F ield         | OpenFOAM: The Open Source CFD Toolbox           |
|  \\    /   O peration     | Version:  2412                                  |
|   \\  /    A nd           | Website:  www.openfoam.com                      |
|    \\/     M anipulation  |                                                 |
\*---------------------------------------------------------------------------*/
FoamFile
{
    version     2.0;
    format      ascii;
    arch        "LSB;label=32;scalar=64";
    class       surfaceScalarField;
    location    "0.1";
    object      phi;
}
// * * * * * * * * * * * * * * * * * * * * * * * * * * * * * * * * * * * * * //

dimensions      [1 0 -1 0 0 0 0];

oriented        oriented;

internalField   nonuniform List<scalar> 
23538
(
-1.845474402e-10
1.220928705e-10
-4.714307662e-10
2.248652159e-10
-7.685867191e-10
2.359761303e-10
-1.03363551e-09
2.051791321e-10
-1.253256951e-09
1.614722338e-10
-1.423839706e-09
1.145385416e-10
-1.543447245e-09
6.603253005e-11
-1.609086222e-09
1.487749372e-11
-1.616342027e-09
-4.038456271e-11
-1.559762744e-09
-1.008272375e-10
-1.43338089e-09
-1.670065728e-10
-1.23120385e-09
-2.3899248e-10
-9.476329332e-10
-3.164432295e-10
-5.778666518e-10
-3.986141713e-10
-1.183425567e-10
-4.843136495e-10
4.327707771e-10
-5.718664279e-10
1.075081236e-09
-6.590951511e-10
1.805497571e-09
-7.433410805e-10
2.617824575e-09
-8.215313427e-10
3.502499634e-09
-8.903171507e-10
4.446529218e-09
-9.462732923e-10
5.433659104e-09
-9.861277594e-10
6.444791838e-09
-1.007013491e-09
7.458653522e-09
-1.006718744e-09
8.452652248e-09
-9.838743961e-10
9.403844874e-09
-9.380772826e-10
1.028994562e-08
-8.699270327e-10
1.109025523e-08
-7.809587319e-10
1.178642534e-08
-6.734846641e-10
1.236308316e-08
-5.504523324e-10
1.280755172e-08
-4.145594961e-10
1.3109098e-08
-2.677531468e-10
1.326211671e-08
-1.152143422e-10
1.326768182e-08
3.630446159e-11
1.313144647e-08
1.821255467e-10
1.286269959e-08
3.184987008e-10
1.247360572e-08
4.42411323e-10
1.197839562e-08
5.51608543e-10
1.13930855e-08
6.444604438e-10
1.073396187e-08
7.20194741e-10
1.001770345e-08
7.784430772e-10
9.260607138e-09
8.195213463e-10
8.478202748e-09
8.441648782e-10
7.684949619e-09
8.53447078e-10
6.89405271e-09
8.486578658e-10
6.11741098e-09
8.31175436e-10
5.36565207e-09
8.023596399e-10
4.648239394e-09
7.634914003e-10
3.973539622e-09
7.157895133e-10
3.348822167e-09
6.604784349e-10
2.780203162e-09
5.988435828e-10
2.272054314e-09
5.327479089e-10
1.826717715e-09
4.643415594e-10
1.445860805e-09
3.944099659e-10
1.131426449e-09
3.227756713e-10
8.846415441e-10
2.502548755e-10
7.0567277e-10
1.780019156e-10
5.934981481e-10
1.072924908e-10
5.458358561e-10
3.94723031e-11
5.591359652e-10
-2.41032727e-11
6.286330789e-10
-8.21394239e-11
7.484789319e-10
-1.334688831e-10
9.119026949e-10
-1.770949786e-10
1.111338795e-09
-2.12209244e-10
1.338740583e-09
-2.382215558e-10
1.58573733e-09
-2.546977582e-10
1.843736119e-09
-2.61419878e-10
2.104123094e-09
-2.583454436e-10
2.358331611e-09
-2.455086923e-10
2.597852071e-09
-2.229955208e-10
2.814234061e-09
-1.909146092e-10
2.999122189e-09
-1.494596419e-10
3.144345153e-09
-9.894251764e-11
3.242023547e-09
-3.98266757e-11
3.284779896e-09
2.717519336e-11
3.266050829e-09
1.0101295e-10
3.180478131e-09
1.802211452e-10
3.024370569e-09
2.628625999e-10
2.796207868e-09
3.46503761e-10
2.497130164e-09
4.282342011e-10
2.131373791e-09
5.04747449e-10
1.706550169e-09
5.724878184e-10
1.233750473e-09
6.278564471e-10
7.274142576e-10
6.67423895e-10
2.049087174e-10
6.882368831e-10
-3.142680405e-10
6.881782406e-10
-8.09583715e-10
6.662639151e-10
-1.260764142e-09
6.22829248e-10
-1.649139599e-09
5.595737397e-10
-1.958853468e-09
4.794199709e-10
-2.177892657e-09
3.863238431e-10
-2.299233429e-09
2.852587752e-10
-2.321243832e-09
1.819721552e-10
-2.248008121e-09
8.208306729e-11
-2.088232495e-09
-9.672946515e-12
-1.854326699e-09
-8.950716222e-11
-1.561680098e-09
-1.5435899e-10
-1.227896496e-09
-2.019482969e-10
-8.717727361e-10
-2.31019665e-10
-5.122110444e-10
-2.414286136e-10
-1.670800431e-10
-2.341696065e-10
1.478309657e-10
-2.112979468e-10
4.196807852e-10
-1.757465621e-10
6.391702136e-10
-1.310493378e-10
8.007748493e-10
-8.097633822e-11
9.026402713e-10
-2.91936251e-11
9.46177691e-10
2.103163295e-11
9.355532791e-10
6.696287025e-11
8.77004999e-10
1.065411195e-10
7.782047306e-10
1.383645854e-10
6.475882079e-10
1.617078661e-10
4.937703356e-10
1.764428738e-10
3.251134594e-10
1.828800349e-10
1.493798201e-10
1.81688423e-10
-2.656959543e-11
1.738347771e-10
-1.969243886e-10
1.604375409e-10
-3.56946316e-10
1.426299542e-10
-5.029676828e-10
1.215383159e-10
-6.323618861e-10
9.824904448e-11
-7.434324871e-10
7.372443983e-11
-8.35274266e-10
4.877917441e-11
-9.076407965e-10
2.408524273e-11
-9.608097396e-10
1.647871704e-13
-9.954430678e-10
-2.260870597e-11
-1.012465804e-09
-4.398555262e-11
-1.012951622e-09
-6.384028981e-11
-9.980142216e-10
-8.216550922e-11
-9.687341134e-10
-9.901755778e-11
-9.261377505e-10
-1.144933344e-10
-8.711241256e-10
-1.287470622e-10
-8.044051049e-10
-1.420024635e-10
-7.264654931e-10
-1.545160606e-10
-6.375386835e-10
-1.66573105e-10
-5.376636938e-10
-1.783933948e-10
-4.270885924e-10
-1.897930805e-10
-3.074169822e-10
-1.994390103e-10
-1.840541383e-10
-2.035474087e-10
-7.025682266e-11
-1.94283177e-10
6.900317001e-12
-1.578363941e-10
-7.387368952e-11
-3.19942563e-10
3.800251709e-10
-7.995413179e-10
6.429409787e-10
-1.266405951e-09
6.421967837e-10
-1.648113877e-09
5.275863644e-10
-1.919370541e-09
3.752212717e-10
-2.072356844e-09
2.122322815e-10
-2.102493744e-09
4.348076165e-11
-2.003500874e-09
-1.338400589e-10
-1.766645065e-09
-3.236734131e-10
-1.381501514e-09
-5.288271216e-10
-8.36944332e-10
-7.505954208e-10
-1.220891336e-10
-9.88863671e-10
7.728393443e-10
-1.2422316e-09
1.855610864e-09
-1.508007699e-09
3.13107591e-09
-1.782145195e-09
4.600203929e-09
-2.059146792e-09
6.259101231e-09
-2.332029428e-09
8.098100722e-09
-2.59241192e-09
1.010102413e-08
-2.830750263e-09
1.22447279e-08
-3.036755296e-09
1.449903136e-08
-3.199980311e-09
1.682712274e-08
-3.310511137e-09
1.918643964e-08
-3.359705395e-09
2.153001314e-08
-3.340899106e-09
2.38081724e-08
-3.249967362e-09
2.597047525e-08
-3.085660321e-09
2.79676719e-08
-2.849701395e-09
2.97535582e-08
-2.546596415e-09
3.128652986e-08
-2.183193528e-09
3.2530666e-08
-1.768074997e-09
3.345734463e-08
-1.311208112e-09
3.404519256e-08
-8.218080803e-10
3.428067518e-08
-3.129174499e-10
3.416115693e-08
1.977395191e-10
3.369536736e-08
6.940224346e-10
3.290104567e-08
1.163045406e-09
3.180335786e-08
1.594219846e-09
3.043324424e-08
1.979196947e-09
2.882675792e-08
2.311697942e-09
2.702210719e-08
2.587887705e-09
2.505948638e-08
2.805560553e-09
2.297942763e-08
2.964597832e-09
2.08216904e-08
3.066447131e-09
1.86243682e-08
3.113846741e-09
1.642320089e-08
3.110464889e-09
1.425114823e-08
3.060542421e-09
1.213816369e-08
2.968555638e-09
1.011113018e-08
2.838986386e-09
8.193854168e-09
2.676275218e-09
6.406975538e-09
2.484967893e-09
4.76773055e-09
2.269899992e-09
3.289355625e-09
2.037079865e-09
1.980350686e-09
1.793515558e-09
8.454702504e-10
1.543855785e-09
-1.120120858e-10
1.289509498e-09
-8.911659559e-10
1.033730798e-09
-1.493934689e-09
7.806343614e-10
-1.925383178e-09
5.347057187e-10
-2.193759137e-09
3.005509472e-10
-2.310381169e-09
8.267920728e-11
-2.289394138e-09
-1.147122175e-10
-2.147373837e-09
-2.879406034e-10
-1.902831475e-09
-4.339947247e-10
-1.575774013e-09
-5.506025253e-10
-1.186865867e-09
-6.363704845e-10
-7.568955564e-10
-6.906142313e-10
-3.064659215e-10
-7.133492932e-10
1.444222552e-10
-7.050965962e-10
5.76608214e-10
-6.667430486e-10
9.719687562e-10
-5.994346595e-10
1.313570272e-09
-5.045425205e-10
1.585718854e-09
-3.836014982e-10
1.773990081e-09
-2.38342051e-10
1.865387634e-09
-7.084084602e-11
1.8486141e-09
1.162687432e-10
1.714481405e-09
3.195756733e-10
1.456475646e-09
5.346814023e-10
1.071433703e-09
7.560230575e-10
5.603128475e-10
9.767927858e-10
-7.103345731e-11
1.188957851e-09
-8.111618093e-10
1.383426424e-09
-1.642517913e-09
1.550392016e-09
-2.54124308e-09
1.679859034e-09
-3.477409168e-09
1.762285912e-09
-4.415794095e-09
1.789423331e-09
-5.317303313e-09
1.755317881e-09
-6.141057714e-09
1.657257226e-09
-6.846939831e-09
1.496409809e-09
-7.398228404e-09
1.277958987e-09
-7.764024682e-09
1.010738068e-09
-7.921440204e-09
7.068083676e-10
-7.857900347e-09
3.813609655e-10
-7.572175949e-09
5.195421726e-11
-7.074448223e-09
-2.646130609e-10
-6.384714502e-09
-5.536508551e-10
-5.53128582e-09
-8.02967672e-10
-4.549079182e-09
-1.002804453e-09
-3.478513492e-09
-1.145303751e-09
-2.363514413e-09
-1.225634491e-09
-1.248932565e-09
-1.242663074e-09
-1.779442549e-10
-1.199009886e-09
8.10411382e-10
-1.100832293e-09
1.683355499e-09
-9.572956611e-10
2.415961925e-09
-7.797767841e-10
2.992109791e-09
-5.808473887e-10
3.404595203e-09
-3.73089912e-10
3.654536145e-09
-1.680983681e-10
3.750278052e-09
2.415844588e-11
3.705762449e-09
1.960364459e-10
3.539073945e-09
3.42000786e-10
3.270868254e-09
4.587843465e-10
2.922939364e-09
5.45159046e-10
2.516999097e-09
6.015697065e-10
2.073722068e-09
6.297740609e-10
1.612003222e-09
6.325849827e-10
1.148445083e-09
6.134765626e-10
6.971016423e-10
5.761931839e-10
2.693911533e-10
5.245507906e-10
-1.25863837e-10
4.622812367e-10
-4.82276663e-10
3.928228987e-10
-7.956347016e-10
3.191866763e-10
-1.06358775e-09
2.439206079e-10
-1.285317469e-09
1.69085941e-10
-1.461193813e-09
9.624254856e-11
-1.592454108e-09
2.649190263e-11
-1.680920811e-09
-3.947947167e-11
-1.728751628e-09
-1.013514867e-10
-1.738232606e-09
-1.590807392e-10
-1.711621838e-09
-2.128216645e-10
-1.65103457e-09
-2.629093682e-10
-1.558319852e-09
-3.098572993e-10
-1.434973195e-09
-3.543193054e-10
-1.282098118e-09
-3.969893023e-10
-1.100663077e-09
-4.382571531e-10
-8.92379174e-10
-4.77219735e-10
-6.618827562e-10
-5.096383782e-10
-4.209347669e-10
-5.24624571e-10
-1.950272956e-10
-5.006267494e-10
-3.100724177e-11
-4.024923442e-10
-1.856085013e-10
-3.441533388e-10
6.63068252e-10
-8.431501768e-10
1.081325442e-09
-1.299550871e-09
1.0389563e-09
-1.631154035e-09
8.009998857e-10
-1.807830612e-09
4.956405176e-10
-1.81879216e-09
1.693308331e-10
-1.657032863e-09
-1.693238147e-10
-1.31387693e-09
-5.248257258e-10
-7.78012326e-10
-9.037950595e-10
-3.613842164e-11
-1.311066229e-09
9.258633636e-10
-1.748800564e-09
2.121662137e-09
-2.216488906e-09
3.563303509e-09
-2.711171114e-09
5.260059933e-09
-3.227449649e-09
7.21720079e-09
-3.757355587e-09
9.434710766e-09
-4.29017677e-09
1.190597255e-08
-4.812404586e-09
1.46165448e-08
-5.307902882e-09
1.754316901e-08
-5.758370868e-09
2.065315856e-08
-6.144132162e-09
2.390429694e-08
-6.445232833e-09
2.724536194e-08
-6.642755026e-09
3.061730517e-08
-6.720205754e-09
3.395503971e-08
-6.664832921e-09
3.718972034e-08
-6.468677592e-09
4.025131521e-08
-6.129216663e-09
4.307125338e-08
-5.649525618e-09
4.558491086e-08
-5.037956651e-09
4.773378798e-08
-4.30737712e-09
4.946722122e-08
-3.474113611e-09
5.074366996e-08
-2.557199036e-09
5.153282701e-08
-1.577052075e-09
5.181475183e-08
-5.570960954e-10
5.158209983e-08
4.722922063e-10
5.084307051e-08
1.479330697e-09
4.961857008e-08
2.438290403e-09
4.794048075e-08
3.327431232e-09
4.584957809e-08
4.129010847e-09
4.339508381e-08
4.829146339e-09
4.063052998e-08
5.418314024e-09
3.761355178e-08
5.890416425e-09
3.440366989e-08
6.243322658e-09
3.106054366e-08
6.478245884e-09
2.764247124e-08
6.599245232e-09
2.420514155e-08
6.612634565e-09
2.080065494e-08
6.526323105e-09
1.747685832e-08
6.349184133e-09
1.427693442e-08
6.090533553e-09
1.123921344e-08
5.759861751e-09
8.397034511e-09
5.366898327e-09
5.778565444e-09
4.921845207e-09
3.406811629e-09
4.43603897e-09
1.297969795e-09
3.923451126e-09
-5.40556447e-10
3.397651171e-09
-2.106267582e-09
2.865050886e-09
-3.400176062e-09
2.332513229e-09
-4.427818896e-09
1.808753319e-09
-5.199565817e-09
1.303167534e-09
-5.730619628e-09
8.252567324e-10
-6.040748222e-09
3.841731809e-10
-6.15380906e-09
-1.172299891e-11
-6.097078621e-09
-3.552539607e-10
-5.900413792e-09
-6.407438328e-10
-5.595534577e-09
-8.641402457e-10
-5.214609205e-09
-1.023397311e-09
-4.789506671e-09
-1.118030426e-09
-4.351188685e-09
-1.149012484e-09
-3.928948603e-09
-1.118520374e-09
-3.549927207e-09
-1.029607416e-09
-3.238723919e-09
-8.86011044e-10
-3.017073369e-09
-6.920628541e-10
-2.903736343e-09
-4.524118255e-10
-2.91442787e-09
-1.720096721e-10
-3.061656623e-09
1.436293037e-10
-3.354494117e-09
4.881783279e-10
-3.798264314e-09
8.541957942e-10
-4.394124879e-09
1.232828431e-09
-5.138543291e-09
1.613553175e-09
-6.022713246e-09
1.984038092e-09
-7.03193981e-09
2.330174501e-09
-8.145109747e-09
2.63631576e-09
-9.334316978e-09
2.885803357e-09
-1.056481823e-08
3.06178736e-09
-1.17954241e-08
3.148332118e-09
-1.297948797e-08
3.131799915e-09
-1.406657745e-08
3.002535054e-09
-1.50048685e-08
2.756519724e-09
-1.574413293e-08
2.396588839e-09
-1.623894182e-08
1.932784027e-09
-1.645164632e-08
1.381764721e-09
-1.635513175e-08
7.661565049e-10
-1.593582363e-08
1.145550861e-10
-1.519561693e-08
-5.395586952e-10
-1.415098407e-08
-1.165182636e-09
-1.282936121e-08
-1.736487917e-09
-1.12695434e-08
-2.229837567e-09
-9.521676598e-09
-2.624034041e-09
-7.643720243e-09
-2.903311577e-09
-5.698342521e-09
-3.058026918e-09
-3.749941255e-09
-3.085236299e-09
-1.861415158e-09
-2.988976321e-09
-9.095608399e-11
-2.780047512e-09
1.510886374e-09
-2.475217273e-09
2.903604234e-09
-2.09588216e-09
4.058425393e-09
-1.666335912e-09
4.959246145e-09
-1.211843289e-09
5.60274799e-09
-7.568016963e-10
5.997276858e-09
-3.228530623e-10
6.160527908e-09
7.298175071e-11
6.116952694e-09
4.184079038e-10
5.895478328e-09
7.056822336e-10
5.5274856e-09
9.311391955e-10
5.044991203e-09
1.094618055e-09
4.479155103e-09
1.198779915e-09
3.859190838e-09
1.24843306e-09
3.211552174e-09
1.249871894e-09
2.559296463e-09
1.210296459e-09
1.921784028e-09
1.137279789e-09
1.314636358e-09
1.038343664e-09
7.49889831e-10
9.205547544e-10
2.362845483e-10
7.902542358e-10
-2.203654655e-10
6.529424818e-10
-6.167245155e-10
5.131677852e-10
-9.514552237e-10
3.744907308e-10
-1.224755823e-09
2.395403685e-10
-1.437932968e-09
1.10100109e-10
-1.593035591e-09
-1.279019993e-11
-1.692537524e-09
-1.286859775e-10
-1.739086149e-09
-2.375982542e-10
-1.735333159e-09
-3.398898272e-10
-1.683773477e-09
-4.362529726e-10
-1.586616551e-09
-5.276670995e-10
-1.445750479e-09
-6.151683507e-10
-1.26305813e-09
-6.991833329e-10
-1.041451098e-09
-7.778036065e-10
-7.872908834e-10
-8.433616571e-10
-5.148732897e-10
-8.770499614e-10
-2.53211215e-10
-8.426177294e-10
-5.399224376e-11
-6.822475571e-10
-3.202340832e-10
-3.29975945e-10
9.33358877e-10
-7.901460573e-10
1.482312022e-09
-1.180587564e-09
1.37127082e-09
-1.416316934e-09
9.802079111e-10
-1.46496342e-09
4.899031217e-10
-1.313368425e-09
-3.400131366e-11
-9.521880955e-10
-5.791116141e-10
-3.702981231e-10
-1.151747917e-09
4.463935831e-10
-1.761536261e-09
1.514149538e-09
-2.415521852e-09
2.850026629e-09
-3.116715855e-09
4.470540488e-09
-3.864128034e-09
6.390306155e-09
-4.652975932e-09
8.620642152e-09
-5.474643298e-09
1.116805088e-08
-6.316444085e-09
1.403260521e-08
-7.161335688e-09
1.720628609e-08
-7.987815614e-09
2.067141254e-08
-8.770186289e-09
2.439935344e-08
-9.479285558e-09
2.834970936e-08
-1.00837332e-08
3.247013556e-08
-1.055168229e-08
3.669697465e-08
-1.08529163e-08
4.09567249e-08
-1.09610802e-08
4.516829874e-08
-1.0855783e-08
4.924591031e-08
-1.052427676e-08
5.310232696e-08
-9.962472037e-09
5.665219908e-08
-9.175183565e-09
5.98151882e-08
-8.175614638e-09
6.25186787e-08
-6.984195399e-09
6.469994181e-08
-5.626993629e-09
6.630758233e-08
-4.1342508e-09
6.730316458e-08
-2.539265861e-09
6.76605052e-08
-8.776848604e-10
6.736845632e-08
8.050505657e-10
6.643343035e-08
2.45950788e-09
6.487721982e-08
4.04443487e-09
6.273535498e-08
5.52414668e-09
6.005478128e-08
6.868763271e-09
5.689396701e-08
8.054086563e-09
5.331793269e-08
9.062400566e-09
4.939792156e-08
9.881251075e-09
4.520910106e-08
1.050462935e-08
4.08281347e-08
1.093204316e-08
3.633117814e-08
1.116797126e-08
3.179203205e-08
1.122109487e-08
2.728056035e-08
1.110335405e-08
2.286146368e-08
1.08289552e-08
1.859343323e-08
1.041345715e-08
1.452866262e-08
9.873097479e-09
1.071267286e-08
9.224551867e-09
7.184145311e-09
8.485112372e-09
3.975414609e-09
7.67268935e-09
1.111916221e-09
6.808337943e-09
-1.393861411e-09
5.918721628e-09
-3.541215003e-09
5.022148339e-09
-5.334112113e-09
4.130233198e-09
-6.782461308e-09
3.257696556e-09
-7.902541103e-09
2.420362946e-09
-8.716974827e-09
1.634131289e-09
-9.254350869e-09
9.141743194e-10
-9.548522266e-09
2.741862535e-10
-9.63765931e-09
-2.742740786e-10
-9.563034098e-09
-7.223292315e-10
-9.368034849e-09
-1.063963641e-09
-9.096308065e-09
-1.296589107e-09
-8.79075028e-09
-1.42041951e-09
-8.49229366e-09
-1.438445326e-09
-8.238997219e-09
-1.355721132e-09
-8.06508027e-09
-1.179174478e-09
-8.000233549e-09
-9.171590536e-10
-8.069427632e-09
-5.788568158e-10
-8.292642256e-09
-1.741026199e-10
-8.684542065e-09
2.865973559e-10
-9.254359767e-09
7.920100377e-10
-1.000580988e-08
1.329965628e-09
-1.093700052e-08
1.887086051e-09
-1.204034478e-08
2.448495356e-09
-1.330242441e-08
2.997560628e-09
-1.470381337e-08
3.515722941e-09
-1.621885734e-08
3.98252049e-09
-1.7815478e-08
4.375857938e-09
-1.945508503e-08
4.672621521e-09
-2.109270898e-08
4.849730913e-09
-2.267753754e-08
4.885575145e-09
-2.415392453e-08
4.761871804e-09
-2.546305969e-08
4.465951974e-09
-2.654533924e-08
3.993102652e-09
-2.7343412e-08
3.348467239e-09
-2.78056562e-08
2.547806267e-09
-2.788950408e-08
1.616802094e-09
-2.756480531e-08
5.902498983e-10
-2.681724938e-08
-4.871096386e-10
-2.565025656e-08
-1.564353615e-09
-2.408208955e-08
-2.595692497e-09
-2.214668641e-08
-3.539555987e-09
-1.989393004e-08
-4.356282013e-09
-1.738545752e-08
-5.012798692e-09
-1.469226431e-08
-5.483854153e-09
-1.189173387e-08
-5.75327712e-09
-9.064237456e-09
-5.814991927e-09
-6.289511063e-09
-5.67355041e-09
-3.642985298e-09
-5.343956482e-09
-1.192300819e-09
-4.850688128e-09
1.005743909e-09
-4.225944927e-09
2.907602867e-09
-3.507253177e-09
4.484462677e-09
-2.734623561e-09
5.722759917e-09
-1.947731774e-09
6.624099736e-09
-1.183437195e-09
7.204362214e-09
-4.730805919e-10
7.490727641e-09
1.597005428e-10
7.517314069e-09
7.001896195e-10
7.322385043e-09
1.140560896e-09
6.945853014e-09
1.479007226e-09
6.42746069e-09
1.718375466e-09
5.805202093e-09
1.865263333e-09
5.114126705e-09
1.928955061e-09
4.38551193e-09
1.920480306e-09
3.646412084e-09
1.851695856e-09
2.919522462e-09
1.734537724e-09
2.223160586e-09
1.580504703e-09
1.571415098e-09
1.400210548e-09
9.745463586e-10
1.203016796e-09
4.395025378e-10
9.968061801e-10
-2.953743357e-11
7.879224565e-10
-4.306110068e-10
5.812093763e-10
-7.634449271e-10
3.80139096e-10
-1.028994454e-09
1.869617404e-10
-1.229040166e-09
2.925465069e-12
-1.365852922e-09
-1.715076575e-10
-1.441937533e-09
-3.364976411e-10
-1.459854819e-09
-4.927068529e-10
-1.422070679e-09
-6.412398945e-10
-1.330870422e-09
-7.833373527e-10
-1.188629685e-09
-9.193649038e-10
-9.987839607e-10
-1.046376364e-09
-7.681384914e-10
-1.153354427e-09
-5.112117111e-10
-1.213799331e-09
-2.569783137e-10
-1.177020769e-09
-5.760192884e-11
-9.620144403e-10
-4.583321793e-10
-3.103832022e-10
1.186000068e-09
-7.248509305e-10
1.839578516e-09
-1.045917398e-09
1.636308076e-09
-1.187784423e-09
1.067846267e-09
-1.11638717e-09
3.666947678e-10
-8.162753592e-10
-3.829233284e-10
-2.754301485e-10
-1.165209236e-09
5.204808032e-10
-1.988837502e-09
1.589018011e-09
-2.866697382e-09
2.950072008e-09
-3.808214947e-09
4.624505131e-09
-4.817424905e-09
6.632663104e-09
-5.892902052e-09
8.992840345e-09
-7.027893614e-09
1.171959821e-08
-8.21016215e-09
1.482191446e-08
-9.421557481e-09
1.830116103e-08
-1.063756383e-08
2.214900005e-08
-1.182711218e-08
2.634537486e-08
-1.295292706e-08
3.085683104e-08
-1.397257411e-08
3.563541567e-08
-1.48402921e-08
4.061841111e-08
-1.550955148e-08
4.572910047e-08
-1.593617517e-08
5.08786308e-08
-1.608166897e-08
5.596891236e-08
-1.591634649e-08
6.089631349e-08
-1.542180684e-08
6.555579419e-08
-1.459239185e-08
6.984508051e-08
-1.343547591e-08
7.366851482e-08
-1.197065019e-08
7.694031746e-08
-1.022798269e-08
7.958710744e-08
-8.245703803e-09
8.154947594e-08
-6.067817662e-09
8.278308934e-08
-3.742538392e-09
8.325707994e-08
-1.318881723e-09
8.295705636e-08
1.141255835e-09
8.188787748e-08
3.569122446e-09
8.007172742e-08
5.905999686e-09
7.754661928e-08
8.100142824e-09
7.436392556e-08
1.010732939e-08
7.058932605e-08
1.18907224e-08
6.629691932e-08
1.342201744e-08
6.156937802e-08
1.468004081e-08
5.649530121e-08
1.565279785e-08
5.116644801e-08
1.633632819e-08
4.56752672e-08
1.67342496e-08
4.011247709e-08
1.68569335e-08
3.456486066e-08
1.672033855e-08
2.911341025e-08
1.634465121e-08
2.383194235e-08
1.575289905e-08
1.878619836e-08
1.496972743e-08
1.403347291e-08
1.40206171e-08
9.62251438e-09
1.293175015e-08
5.593588544e-09
1.172982234e-08
1.980382836e-09
1.044271381e-08
-1.194695332e-09
9.108555866e-09
-3.929748779e-09
7.766286049e-09
-6.232975149e-09
6.437692769e-09
-8.119175239e-09
5.144157371e-09
-9.610819657e-09
3.909199443e-09
-1.073816058e-08
2.756539302e-09
-1.153881761e-08
1.708748592e-09
-1.205691442e-08
7.860796444e-10
-1.234186281e-08
5.440648252e-12
-1.244674544e-08
-6.204524014e-10
-1.242722767e-08
-1.083465804e-09
-1.233865014e-08
-1.38061081e-09
-1.2235326e-08
-1.513392693e-09
-1.216852351e-08
-1.48782752e-09
-1.218487453e-08
-1.31362902e-09
-1.232536328e-08
-1.003444059e-09
-1.262461001e-08
-5.721211261e-10
-1.31101205e-08
-3.615291027e-11
-1.380175606e-08
5.867270054e-10
-1.471151394e-08
1.277824567e-09
-1.584347858e-08
2.017622205e-09
-1.719397169e-08
2.785788935e-09
-1.875187614e-08
3.561109756e-09
-2.049907198e-08
4.321351884e-09
-2.241090117e-08
5.043073559e-09
-2.445655718e-08
5.701418502e-09
-2.659933973e-08
6.270030393e-09
-2.879680023e-08
6.721207428e-09
-3.10008365e-08
7.026448018e-09
-3.315787035e-08
7.157532126e-09
-3.520924522e-08
7.088114343e-09
-3.709198646e-08
6.795873073e-09
-3.8740164e-08
6.26537321e-09
-4.008698266e-08
5.491085681e-09
-4.106779048e-08
4.480235605e-09
-4.162384427e-08
3.25433555e-09
-4.170607249e-08
1.848544818e-09
-4.127911729e-08
3.10925717e-10
-4.032465179e-08
-1.296334739e-09
-3.884260001e-08
-2.904726881e-09
-3.685298844e-08
-4.448326889e-09
-3.439640001e-08
-5.864947747e-09
-3.152904153e-08
-7.09918165e-09
-2.83209413e-08
-8.103957535e-09
-2.485346322e-08
-8.842487582e-09
-2.121620212e-08
-9.290144679e-09
-1.750340943e-08
-9.435989669e-09
-1.38100711e-08
-9.283638779e-09
-1.022788046e-08
-8.851230544e-09
-6.841324792e-09
-8.170328765e-09
-3.724126249e-09
-7.283821787e-09
-9.362822586e-10
-6.242933474e-09
1.478137071e-09
-5.103611105e-09
3.492156087e-09
-3.922674946e-09
5.09570672e-09
-2.753956304e-09
6.294848288e-09
-1.645012207e-09
7.111577153e-09
-6.355107389e-10
7.581542228e-09
2.461050651e-10
7.748178884e-09
9.841542227e-10
7.657502972e-09
1.574210914e-09
7.35628384e-09
2.018350096e-09
6.890042983e-09
2.324427936e-09
6.301603387e-09
2.504461142e-09
5.630019796e-09
2.573285846e-09
4.909824418e-09
2.547345009e-09
4.170609638e-09
2.443570469e-09
3.437020883e-09
2.278475307e-09
2.728974803e-09
2.067449624e-09
2.061920756e-09
1.824373433e-09
1.447200054e-09
1.561273723e-09
8.926766587e-10
1.287992245e-09
4.033452746e-10
1.012260421e-09
-1.808869822e-11
7.398415265e-10
-3.706735007e-10
4.747319769e-10
-6.547371215e-10
2.194534695e-10
-8.715042274e-10
-2.465997741e-11
-1.022762614e-09
-2.572230964e-10
-1.110596676e-09
-4.786265791e-10
-1.137210712e-09
-6.898805995e-10
-1.104815395e-09
-8.922447677e-10
-1.015779448e-09
-1.085951422e-09
-8.734654817e-10
-1.267085576e-09
-6.843367325e-10
-1.421547203e-09
-4.620869262e-10
-1.515628119e-09
-2.343126336e-10
-1.484748992e-09
-5.169647517e-11
-1.224825663e-09
-5.90338952e-10
-2.956985267e-10
1.426481139e-09
-6.750761728e-10
2.164340637e-09
-9.402547838e-10
1.848198435e-09
-1.003701735e-09
1.080068974e-09
-8.291829844e-10
1.437387016e-10
-3.986728037e-10
-8.583949889e-10
3.031554438e-10
-1.907871802e-09
1.294467831e-09
-3.016241134e-09
2.597040829e-09
-4.200047111e-09
4.235406549e-09
-5.471518692e-09
6.235391854e-09
-6.836060858e-09
8.622486418e-09
-8.291993787e-09
1.142005437e-08
-9.830552553e-09
1.464732154e-08
-1.143550012e-08
1.831708547e-08
-1.308241801e-08
2.24331712e-08
-1.473800037e-08
2.698775254e-08
-1.635972676e-08
3.195877174e-08
-1.789628299e-08
3.730772672e-08
-1.928899364e-08
4.297822129e-08
-2.047436316e-08
4.889556694e-08
-2.138770543e-08
5.496774487e-08
-2.196758997e-08
6.108783287e-08
-2.216062953e-08
6.713780394e-08
-2.192597001e-08
7.299335535e-08
-2.123878509e-08
7.852923539e-08
-2.00922484e-08
8.362449872e-08
-1.849776359e-08
8.816723128e-08
-1.648361759e-08
9.205840028e-08
-1.409240835e-08
9.521467779e-08
-1.137772137e-08
9.757004784e-08
-8.400545732e-09
9.907628785e-08
-5.226612516e-09
9.970036154e-08
-1.919939721e-09
9.942656987e-08
1.440337935e-09
9.825912883e-08
4.765540646e-09
9.622108e-08
7.977994274e-09
9.335288118e-08
1.100830038e-08
8.970974814e-08
1.379617382e-08
8.536366315e-08
1.629029129e-08
8.039641923e-08
1.844953532e-08
7.490088169e-08
2.024187932e-08
6.897769916e-08
2.164708601e-08
6.273255191e-08
2.265574479e-08
5.627328592e-08
2.326900889e-08
4.970697203e-08
2.349787883e-08
4.313706778e-08
2.336194971e-08
3.666087962e-08
2.28877472e-08
3.036750824e-08
2.210682122e-08
2.433642523e-08
2.105387396e-08
1.863671202e-08
1.976523447e-08
1.332696237e-08
1.827803732e-08
8.455176788e-09
1.662998372e-08
4.059268185e-09
1.485938682e-08
1.717397102e-10
1.301003269e-08
-3.194179405e-09
1.114030228e-08
-6.05091941e-09
9.297736215e-09
-8.419016061e-09
7.511856706e-09
-1.03275438e-08
5.81474517e-09
-1.181464406e-08
4.239191299e-09
-1.292723314e-08
2.816564778e-09
-1.372010709e-08
1.57502001e-09
-1.42544868e-08
5.379478938e-10
-1.459604723e-08
-2.773067196e-10
-1.481357001e-08
-8.601242046e-10
-1.497509948e-08
-1.207319524e-09
-1.514693454e-08
-1.322546202e-09
-1.539110024e-08
-1.216073929e-09
-1.576347447e-08
-9.038229821e-10
-1.631217454e-08
-4.063094484e-10
-1.707626486e-08
2.523707304e-10
-1.808478544e-08
1.045438099e-09
-1.93561583e-08
1.944189338e-09
-2.089794315e-08
2.918658682e-09
-2.270702411e-08
3.93818382e-09
-2.477023216e-08
4.971897654e-09
-2.706535953e-08
5.989104257e-09
-2.956243543e-08
6.959451664e-09
-3.222504011e-08
7.852856105e-09
-3.501142732e-08
8.639135903e-09
-3.787526607e-08
9.287565079e-09
-4.076597216e-08
9.766605544e-09
-4.36287365e-08
1.004406059e-08
-4.640439171e-08
1.008791283e-08
-4.902924124e-08
9.867753654e-09
-5.143501444e-08
9.356989084e-09
-5.354955614e-08
8.536354703e-09
-5.529834656e-08
7.397801807e-09
-5.660759434e-08
5.948942466e-09
-5.740865481e-08
4.215998395e-09
-5.76427185e-08
2.243537229e-09
-5.726555917e-08
9.351692415e-11
-5.624807661e-08
-2.156137591e-09
-5.458590665e-08
-4.413169924e-09
-5.230024598e-08
-6.585952723e-09
-4.943316341e-08
-8.591261482e-09
-4.604484253e-08
-1.035532655e-08
-4.221155386e-08
-1.18146857e-08
-3.802321833e-08
-1.291857293e-08
-3.358029536e-08
-1.36314855e-08
-2.89900206e-08
-1.393539745e-08
-2.436216663e-08
-1.383112151e-08
-1.980458078e-08
-1.333848707e-08
-1.541881937e-08
-1.24951889e-08
-1.129610324e-08
-1.135433716e-08
-7.51386365e-09
-9.980895471e-09
-4.133046646e-09
-8.447304468e-09
-1.196422279e-09
-6.828615185e-09
1.272163295e-09
-5.197681796e-09
3.267466891e-09
-3.620790648e-09
4.80034025e-09
-2.153844301e-09
5.8974809e-09
-8.412705862e-10
6.60132735e-09
2.853844669e-10
6.963570922e-09
1.212338281e-09
7.037529209e-09
1.939978392e-09
6.875684571e-09
2.476956749e-09
6.528045483e-09
2.837761994e-09
6.041025996e-09
3.040854566e-09
5.456454863e-09
3.10730471e-09
4.811019661e-09
3.059249798e-09
4.135987043e-09
2.918681436e-09
3.457266236e-09
2.706420761e-09
2.795784005e-09
2.44138365e-09
2.16786594e-09
2.140253343e-09
1.585705498e-09
1.817043133e-09
1.057986502e-09
1.483019986e-09
5.905149085e-10
1.146842056e-09
1.868016607e-10
8.148093881e-10
-1.514146908e-10
4.912115562e-10
-4.237214159e-10
1.786963327e-10
-6.30654551e-10
-1.214113065e-10
-7.733661199e-10
-4.089154236e-10
-8.533376024e-10
-6.845085199e-10
-8.722385545e-10
-9.492927404e-10
-8.319752111e-10
-1.203285007e-09
-7.353767061e-10
-1.44166856e-09
-5.881234446e-10
-1.647515436e-09
-4.026774906e-10
-1.780349013e-09
-2.048564675e-10
-1.762253648e-09
-4.310564834e-11
-1.466529752e-09
-7.135239445e-10
-2.870565169e-10
1.661493184e-09
-6.438041604e-10
2.469730279e-09
-8.675724868e-10
2.022132699e-09
-8.669447234e-10
1.032014431e-09
-6.024964402e-10
-1.648734736e-10
-5.293136996e-11
-1.448037638e-09
8.009168163e-10
-2.796931635e-09
1.981583547e-09
-4.226520213e-09
3.515907294e-09
-5.757692229e-09
5.434113731e-09
-7.406134816e-09
7.768262773e-09
-9.179161429e-09
1.055040305e-08
-1.107519773e-08
1.381047893e-08
-1.308351761e-08
1.75738871e-08
-1.518351861e-08
2.185862728e-08
-1.734360393e-08
2.667210009e-08
-1.952011117e-08
3.200768873e-08
-2.165678071e-08
3.784143668e-08
-2.36852313e-08
4.412916744e-08
-2.55268409e-08
5.080453891e-08
-2.709619452e-08
5.777848308e-08
-2.830607223e-08
6.494042377e-08
-2.907365443e-08
7.216146132e-08
-2.932726025e-08
7.929942065e-08
-2.901267438e-08
8.620523609e-08
-2.809799023e-08
9.272989155e-08
-2.657612826e-08
9.873107234e-08
-2.446480027e-08
1.040788987e-07
-2.180426842e-08
1.086603817e-07
-1.865352704e-08
1.123824624e-07
-1.508558559e-08
1.151735015e-07
-1.118238697e-08
1.169832357e-07
-7.03062073e-09
1.177798451e-07
-2.712432531e-09
1.175490577e-07
1.675695494e-09
1.162956654e-07
6.02608491e-09
1.140446556e-07
1.024077712e-08
1.10839578e-07
1.423158869e-08
1.067396201e-07
1.792091922e-08
1.018227052e-07
2.1241631e-08
9.617778297e-08
2.41380095e-08
8.99070086e-08
2.656500019e-08
8.312228672e-08
2.849194157e-08
7.594254384e-08
2.990177857e-08
6.849064292e-08
3.079123045e-08
6.08900073e-08
3.117041152e-08
5.32611605e-08
3.106170392e-08
4.57184241e-08
3.049794607e-08
3.836706534e-08
2.952005783e-08
3.1301139e-08
2.817442877e-08
2.460217895e-08
2.651048047e-08
1.833877261e-08
2.457889306e-08