/*--------------------------------*- C++ -*----------------------------------*\
| =========                 |                                                 |
| \\      /  F ield         | OpenFOAM: The Open Source CFD Toolbox           |
|  \\    /   O peration     | Version:  2412                                  |
|   \\  /    A nd           | Website:  www.openfoam.com                      |
|    \\/     M anipulation  |                                                 |
\*---------------------------------------------------------------------------*/
FoamFile
{
    version     2.0;
    format      ascii;
    arch        "LSB;label=32;scalar=64";
    class       volScalarField;
    location    "0.1";
    object      T;
}
// * * * * * * * * * * * * * * * * * * * * * * * * * * * * * * * * * * * * * //

dimensions      [0 0 0 1 0 0 0];

internalField   nonuniform List<scalar> 
12008
(
307.2726596
307.2854357
307.3110285
307.349726
307.4018843
307.4679717
307.5485535
307.6442669
307.75579
307.8838072
308.0289714
308.1918632
308.3729495
308.5725412
308.7907505
309.0274504
309.2822371
309.5543959
309.8428738
310.1462574
310.4627579
310.790203
311.1260362
311.4673221
311.8107597
312.1527022
312.4891857
312.8159658
313.1285679
313.4223491
313.6925794
313.9345312
314.1435884
314.3153901
314.4459761
314.5319484
314.5706446
314.5605442
314.5011362
314.3907454
314.2316624
314.0265089
313.7790012
313.4938626
313.1766691
312.8336442
312.4714219
312.0967948
311.7164673
311.3368317
310.963781
310.6025701
310.2577293
309.9330304
309.6314982
309.3554604
309.1066266
308.8861872
308.6949222
308.5333102
308.4016338
308.3000726
308.2287837
308.1880251
308.1777565
308.1982228
308.2498542
308.3330868
308.448357
308.5960398
308.7763671
308.9893259
309.2345419
309.5111554
309.8176974
310.1519793
310.5110073
310.8909362
311.2870711
311.693926
312.10534
312.514647
312.9148867
313.2990423
313.6602835
313.9921985
314.2889961
314.5456702
314.7581199
314.9232249
315.0388798
315.1035592
315.1179949
315.0827737
314.9990675
314.8689216
314.6949873
314.480435
314.2288752
313.9442843
313.6309355
313.2933345
312.9361556
312.5641758
312.1822053
311.7950108
311.4072344
311.0233078
310.6473651
310.2831605
309.9339944
309.602653
309.2913679
309.001795
308.7350174
308.491568
308.271472
308.0743044
307.8992572
307.7452134
307.6108214
307.4945676
307.3948422
307.3099982
307.238401
307.178468
307.1286995
307.0877008
307.054196
307.0270363
307.0052022
306.9878015
306.9740645
306.9633371
306.9550721
306.9488209
306.9442245
306.9410062
306.9389645
306.9379705
307.281977
307.2950993
307.3213981
307.3611521
307.4147128
307.4825478
307.5652256
307.6633893
307.7777247
307.9089235
308.057645
308.2244752
308.4098845
308.6141846
308.8374852
309.0796534
309.3402755
309.6186233
309.9136265
310.2238508
310.547484
310.8823282
311.2257994
311.5749331
311.926397
312.2765096
312.6212664
312.956374
313.2772948
313.579305
313.8575666
314.1072266
314.3235366
314.5019736
314.6383942
314.7291981
314.7714947
314.7636918
314.7059674
314.5946708
314.4330815
314.2237529
313.9704522
313.6780381
313.3522891
312.9996816
312.6271338
312.2417331
311.8504709
311.4600019
311.0764458
310.7052409
310.351056
310.0177614
309.7084462
309.4254762
309.1705819
308.9449658
308.7494179
308.5844317
308.4503125
308.3472738
308.2755178
308.2355033
308.2270079
308.2504372
308.3063367
308.3952135
308.5175694
308.673831
308.8642595
309.0888406
309.3471585
309.6382631
309.9605393
310.3115928
310.6881648
311.0860912
311.5003164
311.9249691
312.3534999
312.7788741
313.1938052
313.5910085
313.963456
314.3046086
314.6086144
314.870461
315.0860839
315.2524307
315.367493
315.429495
315.440085
315.3995338
315.3090981
315.170952
314.9878771
314.7631757
314.5005901
314.204227
313.8784868
313.5279978
313.1575522
312.7720396
312.3763785
311.9754407
311.5739714
311.1765043
310.787275
310.4101375
310.0484881
309.7052035
309.3825957
309.0823895
308.8057213
308.5531608
308.3247527
308.1200738
307.9383026
307.7782945
307.6386593
307.5178358
307.4141614
307.3259327
307.2514575
307.1890968
307.1372961
307.0946093
307.0597132
307.0314158
307.0086589
306.9905159
306.9761877
306.9649943
306.9563673
306.9498402
306.9450398
306.941678
306.9395431
306.9384898
307.3007121
307.3145453
307.342273
307.3841709
307.4405899
307.5120057
307.5990039
307.7022521
307.8224645
307.9603634
308.1166379
308.2919013
308.4866461
308.7011988
308.9356741
309.189932
309.4635368
309.7557218
310.0653605
310.3909446
310.7305705
311.0819337
311.4423301
311.8086652
312.1774686
312.544915
312.90685
313.2588238
313.5961325
313.9138724
314.2070099
314.4704741
314.6992764
314.8886469
315.0341773
315.1319908
315.1789258
315.1732208
315.1160019
315.0010987
314.8329296
314.6140749
314.3484457
314.0411647
313.6983785
313.3270115
312.9344777
312.528376
312.1161917
311.7050297
311.3013966
310.9110449
310.5388845
310.188958
309.8644715
309.5678678
309.3009298
309.0649024
308.86062
308.6886321
308.5493179
308.4429868
308.3699601
308.3310806
308.3257843
308.3548918
308.4191194
308.5191245
308.6555398
308.8288901
309.0394859
309.2872962
309.5718052
309.8918627
310.2455413
310.6300153
311.0414786
311.4751178
311.9251525
312.3849484
312.8471999
313.304169
313.7479596
314.1708023
314.5653209
314.9247628
315.2431775
315.5155432
315.7378457
315.9071149
316.021413
316.0785237
316.0819208
316.030919
315.9270489
315.7727081
315.5709355
315.3253198
315.0399106
314.7191337
314.367712
313.9905897
313.5928601
313.1796935
312.7562648
312.3276777
311.8988873
311.4746177
311.0592795
310.6568883
310.2709896
309.9045957
309.5601386
309.2394435
308.9437253
308.6736066
308.4291582
308.209956
308.0151514
307.8435498
307.6936914
307.5639299
307.4525067
307.3576154
307.2774582
307.2102903
307.1544551
307.1084089
307.0707377
307.0401662
307.0155612
306.9959296
306.9804137
306.9682834
306.9589277
306.9518448
306.9466333
306.9429835
306.9406687
306.9395245
307.3292725
307.3442106
307.3741625
307.4194057
307.4802984
307.5573404
307.6511572
307.7624684
307.8920482
308.0406821
308.2091218
308.3980376
308.607969
308.839274
309.0920785
309.3662268
309.6612362
309.9762571
310.3100416
310.6609212
311.026795
311.4051279
311.7929589
312.1869174
312.5832455
312.977826
313.3662144
313.7436745
314.1052204
314.4456677
314.7597002
315.0419585
315.2871586
315.4902328
315.6464787
315.7517299
315.8025656
315.7971803
315.7375315
315.614962
315.434962
315.2002807
314.9150617
314.5848147
314.2162046
313.8167743
313.3946167
312.9580248
312.5151512
312.0737045
311.6407077
311.2223293
310.823794
310.4493694
310.1024186
309.7854941
309.5004632
309.2486499
309.0309786
308.8481111
308.7005692
308.5888394
308.5134636
308.4758068
308.4748701
308.5121718
308.5886201
308.7051015
308.8624377
309.061284
309.3020013
309.5845039
309.9080916
310.2712786
310.671634
311.1056552
311.568695
312.0549612
312.557602
313.0688785
313.5804159
314.0835085
314.5694486
315.0298424
315.4568829
315.8435589
316.1837945
316.4725294
316.7057579
316.8805474
316.9944657
317.0455954
317.0390759
316.9729422
316.8490716
316.6701776
316.4397056
316.1617302
315.8408468
315.4820647
315.0907036
314.6722944
314.2324839
313.7769464
313.3112999
312.8410271
312.3713998
311.9074053
311.4536731
311.0144037
310.5933008
310.1935131
309.817589
309.4674494
309.1443815
308.8490541
308.5815553
308.3414486
308.1278431
307.9394739
307.7747865
307.6320202
307.5092862
307.4046387
307.3161345
307.2418833
307.1800854
307.1290604
307.0872654
307.0533065
307.0259423
307.0040834
306.986787
306.9732497
306.962798
306.9548779
306.9490459
306.9449593
306.9423669
306.9410869
307.368204
307.3846905
307.4177618
307.4677034
307.5348938
307.6198783
307.7233521
307.8461228
307.9890644
308.1530668
308.3389836
308.5475765
308.7794584
309.0350332
309.3144358
309.6174734
309.9435716
310.2917286
310.6604797
311.0478757
311.451476
311.8683554
312.2951245
312.7279607
313.1626456
313.5946071
314.0189621
314.4305597
314.8240254
315.1938102
315.5342512
315.8396532
316.1044025
316.3231148
316.4907858
316.6029596
316.655966
316.6483729
316.5824283
316.4471881
316.2493017
315.9916929
315.6788418
315.3167688
314.912809
314.4753008
314.0132089
313.5357159
313.0518259
312.5700136
312.0979494
311.642316
311.2087205
310.8016972
310.4247886
310.080674
309.7713246
309.4981718
309.2622723
309.0644587
308.9054687
308.78605
308.7071714
308.6705858
308.6751622
308.7231401
308.8157235
308.9540922
309.1392987
309.3721401
309.6529999
309.9816654
310.3571301
310.7773968
311.2393025
311.7383925
312.2688682
312.823633
313.3944466
313.9721847
314.5471797
315.1096073
315.6498677
316.158919
316.6285275
317.0514226
317.421366
317.7331643
317.982662
318.16675
318.2816388
318.3270815
318.3085103
318.2229468
318.0724943
317.8602951
317.5904054
317.2676614
316.8975323
316.4859689
316.0392533
315.5638536
315.0662896
314.5530116
314.0302975
313.5041667
312.9803093
312.4640258
311.9601746
311.4731216
311.0066928
310.5641291
310.1480503
309.7604314
309.4025964
309.0752316
308.7784189
308.511689
308.2740904
308.0642695
307.8805569
307.7210545
307.5837184
307.4664346
307.3670847
307.2836003
307.214006
307.1564515
307.109233
307.0708068
307.0397946
307.0149836
306.9953222
306.9799121
306.9679986
306.9589599
306.9522972
306.9476244
306.9446582
306.9431958
307.4182344
307.436773
307.4739802
307.5301575
307.60572
307.7012853
307.817655
307.9557688
308.1166482
308.3013357
308.5108309
308.7460239
309.0076243
309.2960882
309.6115436
309.9537184
310.3218753
310.7147576
311.1305517
311.566869
312.020749
312.4886827
312.9666545
313.450196
313.9344484
314.4142249
314.88407
315.3383135
315.7711168
316.1765176
316.5484796
316.8809599
317.1680067
317.403913
317.5833656
317.7016015
317.7546719
317.7422055
317.6657874
317.5125286
317.2903007
317.0021606
316.6530017
316.2494639
315.7997063
315.3130599
314.7995887
314.2696079
313.7332096
313.1998454
312.6780052
312.1750114
311.6969339
311.2486142
310.8337842
310.4552452
310.1150687
309.8148016
309.5556597
309.3386955
309.1649358
309.0354854
308.95194
308.9162523
308.9276252
308.9889271
309.1017833
309.267724
309.4880545
309.7636939
310.0949814
310.481458
310.9216353
311.4127745
311.9507022
312.529698
313.1424869
313.7803608
314.4334363
315.0910301
315.7421104
316.3757605
316.9815885
317.5500301
318.0725184
318.5415303
318.950547
319.2939854
319.5671614
319.7663338
319.8852881
319.9265083
319.8946255
319.7854739
319.6013979
319.3461568
319.0247323
318.6431276
318.2081459
317.7271628
317.2078993
316.6582055
316.0858636
315.4984205
314.9030567
314.3064909
313.7149182
313.1339745
312.5687157
312.0236048
311.5024997
311.0086372
310.5446163
310.1123847
309.7132358
309.3478198
309.0161726
308.7177627
308.4515561
308.2160928
308.0095728
307.8299446
307.6749913
307.5424113
307.4298887
307.335153
307.2560277
307.1904658
307.1365761
307.0926388
307.0571136
307.0286412
307.0060391
306.9882948
306.9745555
306.9641169
306.9564127
306.9510036
306.9475673
306.9458752
307.4802775
307.5014432
307.5439465
307.6081152
307.6944199
307.8035831
307.936556
308.0944617
308.2785243
308.4899923
308.7300582
308.9997741
309.2999623
309.6311218
309.993335
310.3861778
310.8086404
311.2590664
311.7351159
312.2337574
312.751291
313.2834
313.8252257
314.3714573
314.9164265
315.4541981
315.9786488
316.4835307
316.9625185
317.4092437
317.8173247
318.1804071
318.4922303
318.7467768
318.9384109
319.0620119
319.1132486
319.0936854
319.0030229
318.8268437
318.574062
318.2478854
317.8536079
317.3985473
316.8918199
316.3439559
315.7663895
315.1708785
314.5689241
313.9712558
313.387437
312.8256208
312.2924626
311.7931733
311.3316853
310.9108978
310.5329497
310.1994815
309.9118682
309.6714132
309.479495
309.3376681
309.2483237
309.2135473
309.2331851
309.3107576
309.448393
309.6480141
309.9111735
310.2388531
310.6312296
311.0874172
311.6052046
312.1808167
312.8087372
313.4816383
314.1904549
314.9246283
315.6725111
316.4218899
317.1605466
317.8767638
318.5596867
319.1994975
319.7874059
320.315514
320.7766419
321.1642021
321.472202
321.6954363
321.8239058
321.8635819
321.8175727
321.6800469
321.4537741
321.14352
320.7557186
320.2981473
319.7795849
319.2094685
318.5975614
317.9536391
317.2872108
316.6072908
315.9222308
315.2396153
314.5662158
313.9079903
313.2701141
312.6570226
312.072454
311.5194806
311.0005282
310.5173838
310.0712005
309.6625079
309.2912338
308.956742
308.6578872
308.3930846
308.1603908
307.9575907
307.7822846
307.6319712
307.5041233
307.3962525
307.3059622
307.2309893
307.1692338
307.1187787
307.0779003
307.0450724
307.018963
306.9984277
306.9825001
306.9703802
306.9614227
306.9551263
306.9511224
306.949153
307.555437
307.5798876
307.6290158
307.7031871
307.8029496
307.9291671
308.0829903
308.2657832
308.4790323
308.7242474
309.002858
309.3161034
309.6649167
310.0498058
310.4707337
310.9270079
311.4171873
311.939017
312.4893992
313.064408
313.6593464
314.2688426
314.8869743
315.5074069
316.1235296
316.7285765
317.3157241
317.8781596
318.4091209
318.9019123
319.3499037
319.7465287
320.0853014
320.3599364
320.5644641
320.6933218
320.7415967
320.713693
320.6063154
320.4035374
320.1152147
319.7445495
319.2971173
318.7808738
318.2059564
317.584275
316.9289241
316.2534812
315.5712803
314.8947528
314.2349163
313.6010583
313.0006293
312.4393251
311.9213173
311.4495787
311.0262572
310.6530293
310.3313957
310.0629126
309.8493528
309.6928013
309.5966093
309.5629566
309.5925947
309.6897484
309.8571113
310.0970145
310.4112144
310.8006445
311.2651368
311.8031261
312.4113634
313.0846787
313.8158441
314.5955929
315.412839
316.2551078
317.1091394
317.961571
318.7995631
319.6112348
320.3858188
321.1135336
321.7852592
322.3921598
322.9254136
323.376146
323.7356481
323.9959381
324.1415039
324.1826909
324.120751
323.9476064
323.667028
323.2855493
322.8119044
322.2565065
321.6309387
320.947472
320.2186116
319.4566747
318.673418
317.8797371
317.0854543
316.2992013
315.5283925
314.7792732
314.0570179
313.365853
312.7091791
312.0896741
311.5093664
310.969681
310.4714634
310.0149915
309.5999891
309.2256496
308.8906747
308.5933307
308.3315179
308.1028507
307.9047424
307.7344882
307.5893435
307.4665932
307.36361
307.2779006
307.2071412
307.1492006
307.1021553
307.0642947
307.034121
307.0103431
306.9918669
306.9777842
306.9673608
306.9600246
306.955355
306.9530599
307.6450034
307.6734922
307.730767
307.8172439
307.9335722
308.0807972
308.2603222
308.473813
308.7230786
309.0099421
309.3361032
309.7029947
310.1116311
310.5624551
311.0551884
311.5886972
312.1608876
312.7686443
313.4078225
314.0733023
314.7591014
315.4585374
316.1644208
316.8692544
317.5654167
318.2453109
318.9014709
319.5266222
320.113703
320.6558486
321.1463496
321.5785958
321.9460261
322.242176
322.4607495
322.595649
322.6410892
322.6049818
322.4805196
322.2496563
321.9231112
321.5037624
320.9971784
320.4117463
319.7585461
319.05095
318.3039677
317.5334042
316.7549436
315.9832844
315.2314434
314.5103104
313.8284828
313.1923637
312.6064659
312.0738463
311.5966004
311.1763531
310.8146584
310.5132913
310.2744334
310.1007601
309.9967441
309.964613
310.0062705
310.1266946
310.3291838
310.6164565
310.9903774
311.4516553
311.9995188
312.6313911
313.3426001
314.1261804
314.972836
315.8711322
316.807953
317.7692043
318.7406533
319.7087257
320.6610451
321.5865513
322.4751572
323.3170692
324.1020169
324.8186688
325.4544795
325.9959834
326.4295692
326.7427691
326.9124667
326.9561211
326.8720695
326.6502651
326.2967534
325.8211231
325.2356087
324.554317
323.7925428
322.9661679
322.0911135
321.1828288
320.2558305
319.3233236
318.3969322
317.486556
316.6003539
315.7448403
314.9250633
314.1448293
313.4069319
312.7133565
312.0654366
311.4639578
310.9092168
310.4010454
309.9388164
309.5214496
309.147427
308.8148265
308.5213723
308.2645013
308.0414385
307.8492769
307.6850554
307.5458309
307.4287407
307.3310548
307.2502154
307.1838662
307.1298702
307.0863196
307.0515371
307.0240715
307.0026893
306.9863635
306.9742611
306.965732
306.9602975
306.9576279
307.7504386
307.7838243
307.8509816
307.9523892
308.0888217
308.2615461
308.4722717
308.7230247
309.0159912
309.3533461
309.737072
310.1687696
310.6494627
311.1794025
311.7578842
312.3830909
313.0519846
313.7602608
314.5023826
315.2716982
316.0606368
316.8609636
317.6640627
318.4612113
319.2438085
320.0035393
320.7324678
321.4230686
322.0682078
322.6610847
323.1951406
323.663944
324.0610684
324.3800143
324.6142132
324.7569704
324.8012934
324.7586768
324.6194385
324.3620041
323.9978932
323.5291715
322.960906
322.3014796
321.5626086
320.7590159
319.9077483
319.0271992
318.1359644
317.2516993
316.3901485
315.5644809
314.7849963
314.059199
313.3921701
312.7871363
312.2461216
311.7706046
311.3620865
311.0224882
310.7543773
310.561052
310.448254
310.4181858
310.4741393
310.6218709
310.8652877
311.2074238
311.6500902
312.1935152
312.8359809
313.573489
314.3995099
315.3048943
316.2780386
317.3053785
318.3722173
319.4637859
320.5662972
321.6676696
322.7576232
323.8270171
324.8665636
325.8653209
326.8094783
327.6818585
328.4624616
329.1297139
329.6623183
330.041534
330.2351497
330.2753605
330.1526788
329.8586787
329.4037853
328.8024018
328.0716222
327.2302249
326.2978981
325.2946303
324.2401655
323.1534665
322.0521937
320.9522457
319.8674079
318.8091462
317.7865652
316.8065272
315.8739021
314.9919025
314.1624459
313.3864934
312.6643261
311.9957411
311.380168
310.8167208
310.304207
309.8411146
309.4255982
309.0554806
308.7282734
308.4412201
308.1913543
307.9755701
307.790695
307.6335622
307.5010761
307.3902684
307.2983438
307.2227136
307.1610194
307.1111459
307.0712256
307.039637
307.0149968
306.9961497
306.982156
306.9722805
306.9659815
306.9628883
307.8733436
307.9125977
307.9916006
308.1109038
308.271428
308.4746981
308.722777
309.0181006
309.3632703
309.7608278
310.2130159
310.7215331
311.2872828
311.9101316
312.5886907
313.3201438
314.1001464
314.9228173
315.7808386
316.6656678
317.5678488
318.4773906
319.3841655
320.2782687
321.1502851
321.9914388
322.7936357
323.5494277
324.2519265
324.8946866
325.4715633
325.9765461
326.4035716
326.7462969
326.9980071
327.1514238
327.1980635
327.1520923
327.0032137
326.7241879
326.3272097
325.8129141
325.1851823
324.4517008
323.6242171
322.7183898
321.7531665
320.7497175
319.7300529
318.715536
317.7255299
316.7763892
315.8809273
315.0483861
314.2848428
313.5939191
312.977638
312.4372848
311.9741888
311.5903071
311.288531
311.0727752
310.95017
310.9227836
310.9955075
311.1748605
311.4653105
311.8700665
312.3906426
313.0264402
313.7743657
314.6285307
315.5801174
316.6175215
317.7268883
318.8930997
320.101136
321.3375325
322.5914557
323.8548808
325.1215405
326.3847392
327.6345811
328.8555081
330.0250211
331.1140544
332.0894832
332.9173058
333.566399
334.0082797
334.2085111
334.2251305
334.0292615
333.6245339
333.0281706
332.2611049
331.3462364
330.3073558
329.1685117
327.953613
326.6860542
325.3882558
324.0811284
322.7835262
321.5117701
320.2793106
319.0965839
317.9710857
316.907648
315.9088681
314.9756149
314.1075348
313.3034906
312.5618954
311.8809272
311.2586367
310.6929742
310.1817678
309.7226805
309.3131703
308.9504705
308.6315968
308.3533791
308.112512
307.905618
307.7293142
307.5802786
307.455309
307.3513734
307.2656493
307.195552
307.1387526
307.0931861
307.0570524
307.0288103
307.0071682
306.9910731
306.9796989
306.9724359
306.9688698
308.0154066
308.0616148
308.1546549
308.2951571
308.484201
308.7235959
309.015792
309.3636643
309.7702406
310.238406
310.7705932
311.3684674
312.0326143
312.7622482
313.5549648
314.4065645
315.3109795
316.2603256
317.2450977
318.2545061
319.2769365
320.3004893
321.3135239
322.3051218
323.2653777
324.1854858
325.0576676
325.8750105
326.6312758
327.3207061
327.9378358
328.4772921
328.9335631
329.3006591
329.5719058
329.7395691
329.7935737
329.7485127
329.5975532
329.3054625
328.8844794
328.3332815
327.6537958
326.8520994
325.9390399
324.9304096
323.8465297
322.7112048
321.5501486
320.3891166
319.2520633
318.1596393
317.1282608
316.169846
315.292175
314.4997162
313.7947125
313.1783136
312.6516036
312.2164446
311.8759494
311.6345981
311.5009832
311.4768886
311.5689666
311.7844237
312.1281692
312.6033608
313.2108753
313.9488459
314.8123007
315.7929775
316.8794389
318.0576466
319.3121251
320.6277081
321.9915907
323.3950607
324.8340472
326.3077591
327.8153008
329.3509908
330.899703
332.4337959
333.9128818
335.2865667
336.5014695
337.5075662
338.2650757
338.7271668
338.8951195
338.8392596
338.5132575
337.9435302
337.1564332
336.1801025
335.0428662
333.7725324
332.396268
330.9406958
329.4318771
327.8950341
326.3540384
324.8307671
323.3444392
321.9110495
320.5430037
319.2490306
318.0343892
316.9013325
315.8497395
314.8778066
313.982694
313.1610525
312.4093935
311.7242995
311.1025025
310.5408695
310.0363374
309.585833
309.1862025
308.8341703
308.5263307
308.2591686
308.0291028
307.8325422
307.6659472
307.5258894
307.4091056
307.3125416
307.2333862
307.1690942
307.1173987
307.0763152
307.0441386
307.0194354
307.001033
306.9880097
306.9796843
306.9755965
308.1783298
308.2326857
308.3421687
308.5074854
308.729874
309.011437
309.3550224
309.7639422
310.2416206
310.7912119
311.4152062
312.1150356
312.8906974
313.740418
314.6603885
315.6446049
316.6848442
317.7708016
318.890399
320.0302663
321.1763755
322.3147823
323.4323729
324.5174805
325.5601976
326.5523226
327.4870643
328.3586616
329.1620288
329.8924679
330.5454416
331.116371
331.6004028
331.9920319
332.284808
332.4707757
332.5384901
332.4991849
332.3549621
332.0621726
331.6294127
331.0543753
330.3362585
329.4784745
328.4897573
327.3848226
326.1843521
324.9141564
323.6035377
322.2830758
320.9822218
319.7271419
318.5391906
317.4342263
316.4227825
315.5109371
314.7016184
313.9960594
313.3951424
312.90053
312.5154245
312.2447724
312.098639
312.0783314
312.1923394
312.4484077
312.8516751
313.404919
314.1079321
314.9570474
315.944871
317.0603449
318.2893306
319.6159248
321.0246266
322.5031732
324.0453448
325.652479
327.3322557
329.094002
330.9412774
332.8638595
334.8314477
336.7911403
338.6704034
340.3844007
341.8528654
343.0093033
343.8089776
344.2010871
344.2778964
344.0535785
343.5221231
342.7245302
341.697285
340.4741452
339.0863401
337.5629513
335.9316778
334.2196349
332.4537964
330.6609474
328.8672202
327.097339
325.3737144
323.7155456
322.1380949
320.6522808
319.2646676
317.9778494
316.7911424
315.7014492
314.7041421
313.7938438
312.9650211
312.2123663
311.5309811
310.9164053
310.3645483
309.8715728
309.433774
309.0474801
308.7089891
308.4145473
308.1603612
307.9426343
307.7576173
307.6016653
307.4712916
307.3632164
307.2744049
307.2020961
307.1438196
307.0974038
307.0609756
307.032955
307.0120459
306.9972271
306.9877431
306.9830855
308.3637342
308.4275236
308.556036
308.7500387
309.0109096
309.3410271
309.7436127
310.2223705
310.7810373
311.4229
312.1503047
312.9641813
313.8636086
314.8454497
315.9040956
317.0313483
318.2164694
319.4464061
320.7062009
321.9795928
323.2498209
324.5006241
325.7173126
326.8877004
328.0025005
329.0550088
330.0403831
330.9548707
331.7952016
332.5581821
333.2404522
333.8383244
334.3476124
334.7633097
335.0792788
335.2876068
335.376135
335.3475824
335.2188441
334.9411106
334.510689
333.9280365
333.1888491
332.2928013
331.2451585
330.0580294
328.7509574
327.350545
325.8889868
324.4016477
322.9240981
321.4891772
320.1246535
318.851877
317.6855531
316.6345107
315.7031643
314.8932981
314.2058103
313.6421729
313.2055407
312.9011847
312.740575
312.7243109
312.8626732
313.163704
313.632449
314.2708584
315.0770868
316.0450635
317.1644408
318.4211196
319.7986347
321.2806734
322.8547629
324.5165502
326.273158
328.1432538
330.1516699
332.3184991
334.6458238
337.1066522
339.6385792
342.1433866
344.4964086
346.5613197
348.2310675
349.4341348
350.1081403
350.3225447
350.1903439
349.6856237
348.8671818
347.7858196
346.4832993
344.9939584
343.3472277
341.5693902
339.6852973
337.7198268
335.6987187
333.6487314
331.597232
329.5713441
327.5967893
325.6965949
323.8898903
322.191017
320.6091173
319.1482686
317.8081106
316.5848157
315.4722075
314.4628381
313.5488821
312.7227699
311.9775526
311.3070337
310.7057342
310.1687592
309.6916293
309.2701193
308.9001325
308.5776208
308.2985527
308.0589189
307.8547644
307.6822355
307.5376315
307.4174545
307.3184522
307.2376509
307.172378
307.1202741
307.0792964
307.0477156
307.0241094
307.0073545
306.9966188
306.9913451
308.5730452
308.6476199
308.7978736
309.0246014
309.3292767
309.7145013
310.1838022
310.7411758
311.3905258
312.1350668
312.9767353
313.9156414
314.9495968
316.0737593
317.2804243
318.5589854
319.89606
321.2757621
322.6801111
324.0896191
325.4841683
326.8443436
328.153128
329.3976489
330.5699332
331.666107
332.6847992
333.625601
334.4880464
335.2710663
335.9727897
336.5904959
337.1205924
337.5584489
337.8981647
338.1320144
338.2482065
338.2360314
338.1314955
337.8827933
337.4699745
336.8977883
336.1579603
335.2456583
334.161468
332.9132704
331.5176214
330.0001344
328.3945137
326.7402004
325.0789801
323.4512224
321.8925356
320.4314836
319.0886872
317.8772714
316.8043439
315.8730574
315.0847851
314.441001
313.9447435
313.6014355
313.4237964
313.4114566
313.5762771
313.9262552
314.4658921
315.1957412
316.1116653
317.2045479
318.4606449
319.8628892
321.393567
323.0386907
324.7938783
326.6703804
328.6982338
330.9223632
333.388802
336.1235367
339.1127778
342.2923226
345.5445215
348.6985535
351.5493755
353.8839918
355.5915418
356.5864087
356.935594
356.8541382
356.3280401
355.4475549
354.2835448
352.8897511
351.304735
349.5563628
347.6669261
345.6559035
343.5422354
341.3461262
339.0900753
336.7991747
334.5007897
332.2236877
329.9966921
327.8470214
325.7985601
323.8703621
322.075656
320.4215218
318.9092636
317.5353535
316.2927222
315.1721418
314.1634776
313.2566623
312.4423324
311.7121442
311.0588326
310.4760986
309.9584095
309.5007784
309.0985689
308.7473484
308.4427976
308.1806724
307.9568068
307.7671423
307.607772
307.4749886
307.3653298
307.2756148
307.2029721
307.1448561
307.0990543
307.0636876
307.0372058
307.0183819
307.0063063
307.0003721
308.8073616
308.8941023
309.0688576
309.3323958
309.6862106
310.1330334
310.6765756
311.3209656
312.0700628
312.9267459
313.8922369
314.9655105
316.1428384
317.4175069
318.7797249
320.2166979
321.7127977
323.2497323
324.8066612
326.3603755
327.8859129
329.3583002
330.7555717
332.0627644
333.2739303
334.3903936
335.4170961
336.3593704
337.2212436
338.0047565
338.7099933
339.3352953
339.8775303
340.3321911
340.6933328
340.9532225
341.1007287
341.1160811
341.0377325
340.827879
340.4484091
339.904917
339.1855618
338.2808778
337.1859748
335.9030645
334.4437602
332.8304916
331.0964296
329.2836
327.4393572
325.6118944
323.8457821
322.1784885
320.6384933
319.2451206
318.0098105
316.9383235
316.0333038
315.296658
314.7314004
314.3429326
314.1449781
314.1359249
314.3288022
314.7311109
315.3462206
316.1725972
317.2030777
318.4248659
319.8205504
321.3706365
323.0581869
324.8759304
326.8351698
328.9736935
331.3570383
334.0660101
337.1675353
340.6783738
344.54275
348.6330022
352.7546161
356.6293661
359.9230553
362.2882014
363.6493716
364.1119158
364.0096581
363.3562356
362.3302882
361.0228904
359.4997114
357.8035878
355.9602313
353.985164
351.8899231
349.684805
347.3810693
344.992692
342.537405
340.0371261
337.517829
335.0088016
332.5412728
330.1465089
327.8536176
325.6874058
323.6666609
321.8031608
320.101557
318.5600858
317.1718945
315.9266732
314.8122865
313.8161588
312.9262812
312.1318084
311.4232934
310.7926554
310.2329836
309.7382724
309.3031567
308.9226902
308.5921866
308.3071243
308.063108
307.8558711
307.681305
307.535501
307.4147942
307.3158041
307.2354656
307.1710503
307.1201779
307.0808202
307.0512991
307.0302835
307.016786
307.0101501
309.0673153
309.1675857
309.3695528
309.6738807
310.0819746
310.596555
311.2213409
311.9603717
312.8171968
313.7940638
314.8911937
316.1062182
317.4338376
318.8657304
320.390682
321.9948109
323.6616761
325.3719977
327.1028207
328.8263509
330.5093592
332.1152317
333.6098264
334.9715698
336.1974042
337.299067
338.2938718
339.1975846
340.0218055
340.7732795
341.4547022
342.0655378
342.6028738
343.0619044
343.4361458
343.7173484
343.8942519
343.9462711
343.8927196
343.7266656
343.3956652
342.8958736
342.2158261
341.3416095
340.2624004
338.9736377
337.4801955
335.7989797
333.9600983
332.00592
329.9878614
327.9614436
325.980742
324.0935239
322.338062
320.7420116
319.3231729
318.0916047
317.0524406
316.208746
315.5638329
315.1229777
314.9005792
314.8935207
315.1153568
315.5725344
316.2665697
317.1930418
318.3409774
319.6933199
321.2289644
322.9270967
324.7746859
326.7774668
328.9729026
331.4398811
334.2950722
337.6641759
341.6263038
346.1571339
351.1183835
356.2969887
361.4279677
366.0702755
369.6555188
371.4360599
371.9775788
371.7097571
370.7741527
369.4339678
367.8784527
366.1579645
364.3092192
362.3526627
360.2958111
358.1400997
355.8857932
353.5338009
351.087397
348.5536861
345.9445916
343.2774932
340.5754329
337.866697
335.1836379
332.5607463
330.0321527
327.6289087
325.3764911
323.2929735
321.3881747
319.663876
318.1149643
316.7311806
315.4990857
314.4038935
313.4309315
312.5666225
311.7989957
311.1178138
310.514437
309.9815444
309.5128119
309.1026133
308.745784
308.437458
308.1729756
307.9478485
307.757765
307.5986197
307.466553
307.3579922
307.269685
307.1987252
307.1425683
307.0990391
307.066333
307.0430157
307.0280222
307.0206471
309.3529318
309.4680221
309.6997458
310.0485621
310.515644
311.103515
311.8156723
312.6557969
313.6268371
314.7301405
315.9647647
317.3270723
318.8106765
320.4067376
322.1044752
323.8915878
325.7540785
327.6748833
329.6308228
331.5881598
333.4983865
335.2995364
336.9275865
338.3425781
339.5460227
340.5733156
341.4677344
342.2643604
342.9877997
343.6519187
344.2625773
344.8200233
345.3210115
345.7596419
346.1280965
346.4168369
346.6140009
346.7003594
346.6697241
346.545982
346.2743527
345.8272176
345.2008436
344.3763916
343.3369322
342.0705395
340.5739969
338.8565346
336.9424872
334.8717677
332.6975246
330.4812011
328.2861127
326.1711475
324.1860278
322.3688925
320.7461919
319.334389
318.1427771
317.1766809
316.4402972
315.9388294
315.686955
315.6798291
315.9306493
316.4441555
317.2191667