/*--------------------------------*- C++ -*----------------------------------*\
| =========                 |                                                 |
| \\      /  F ield         | OpenFOAM: The Open Source CFD Toolbox           |
|  \\    /   O peration     | Version:  5.x                                   |
|   \\  /    A nd           | Web:      www.OpenFOAM.org                      |
|    \\/     M anipulation  |                                                 |
\*---------------------------------------------------------------------------*/
FoamFile
{
    version     2.0;
    format      ascii;
    class       volVectorField;
    location    "0.2";
    object      Urom;
}
// * * * * * * * * * * * * * * * * * * * * * * * * * * * * * * * * * * * * * //

dimensions      [0 1 -1 0 0 0 0];

internalField   nonuniform List<vector> 
17457
(
(-1.18657 -0.0062648 0)
(-1.05553 -0.00647427 0)
(-2.27284 -0.0603299 0)
(-0.939876 -0.00601641 0)
(-2.02261 -0.0547867 0)
(-2.4654 -0.133856 0)
(-0.842311 -0.00558976 0)
(-1.82142 -0.0464425 0)
(-2.23044 -0.111815 0)
(-2.28381 -0.196451 0)
(-0.75405 -0.00603372 0)
(-1.66365 -0.0387619 0)
(-2.07444 -0.0875122 0)
(-2.14759 -0.150727 0)
(-2.10179 -0.230783 0)
(-0.668237 -0.00642573 0)
(-1.52969 -0.0351755 0)
(-1.96405 -0.0701174 0)
(-2.08093 -0.111413 0)
(-2.05753 -0.167023 0)
(-2.03364 -0.242983 0)
(-0.59183 -0.00537982 0)
(-1.407 -0.0326603 0)
(-1.86246 -0.0629234 0)
(-2.0373 -0.0905654 0)
(-2.04554 -0.119302 0)
(-2.02652 -0.170573 0)
(-2.0491 -0.249739 0)
(-0.536917 -0.00322085 0)
(-1.30434 -0.0259933 0)
(-1.76059 -0.0578721 0)
(-1.98302 -0.0850471 0)
(-2.04225 -0.0980277 0)
(-2.03319 -0.118496 0)
(-2.0336 -0.170794 0)
(-2.09982 -0.264593 0)
(-0.50337 -0.00159203 0)
(-1.23424 -0.0161884 0)
(-1.67603 -0.0450599 0)
(-1.91029 -0.0805816 0)
(-2.0251 -0.0978496 0)
(-2.04716 -0.0973385 0)
(-2.04486 -0.113979 0)
(-2.05771 -0.174052 0)
(-2.15801 -0.291473 0)
(-0.481238 -0.000713399 0)
(-1.18989 -0.009336 0)
(-1.6229 -0.0280357 0)
(-1.839 -0.0624204 0)
(-1.97347 -0.0998656 0)
(-2.044 -0.105323 0)
(-2.06632 -0.0943907 0)
(-2.06676 -0.1084 0)
(-2.0903 -0.183107 0)
(-2.21083 -0.326074 0)
(-0.465274 -0.000451047 0)
(-1.15229 -0.00621637 0)
(-1.58877 -0.0184874 0)
(-1.79281 -0.0389604 0)
(-1.8963 -0.0806665 0)
(-1.9931 -0.119726 0)
(-2.05545 -0.114128 0)
(-2.08456 -0.0928616 0)
(-2.08386 -0.105761 0)
(-2.12115 -0.199613 0)
(-2.24792 -0.363145 0)
(-0.458416 0.000345746 0)
(-1.11768 -0.00369942 0)
(-1.54843 -0.0166724 0)
(-1.7693 -0.0280234 0)
(-1.84007 -0.0485329 0)
(-1.90414 -0.102615 0)
(-1.99061 -0.14258 0)
(-2.05954 -0.127213 0)
(-2.08309 -0.0947419 0)
(-2.08234 -0.111221 0)
(-2.1345 -0.226376 0)
(-2.2593 -0.402478 0)
(-0.462043 0.00134326 0)
(-1.09737 0.000657443 0)
(-1.49667 -0.013156 0)
(-1.74052 -0.0303463 0)
(-1.82821 -0.032384 0)
(-1.84073 -0.0573823 0)
(-1.90149 -0.126456 0)
(-1.9893 -0.166668 0)
(-2.05135 -0.141521 0)
(-2.05553 -0.100764 0)
(-2.05511 -0.127326 0)
(-2.11802 -0.265324 0)
(-2.23934 -0.449074 0)
(-0.470315 0.00169934 0)
(-1.09094 0.00422814 0)
(-1.45132 -0.00530548 0)
(-1.68424 -0.0300579 0)
(-1.82499 -0.0399868 0)
(-1.84234 -0.0302736 0)
(-1.84334 -0.0649623 0)
(-1.91941 -0.148567 0)
(-1.99931 -0.186139 0)
(-2.03036 -0.15142 0)
(-2.00874 -0.109084 0)
(-2.00605 -0.152937 0)
(-2.07109 -0.31511 0)
(-2.18602 -0.507672 0)
(-0.476213 0.00141784 0)
(-1.08357 0.00448804 0)
(-1.4147 -0.000360308 0)
(-1.61183 -0.0218263 0)
(-1.78043 -0.049543 0)
(-1.8643 -0.0431413 0)
(-1.85245 -0.0232854 0)
(-1.8759 -0.0717594 0)
(-1.96737 -0.16435 0)
(-2.01607 -0.194347 0)
(-2.00167 -0.152394 0)
(-1.95385 -0.115587 0)
(-1.94585 -0.183246 0)
(-2.00276 -0.371986 0)
(-2.09624 -0.57706 0)
(-0.479083 0.00154358 0)
(-1.06583 0.00244437 0)
(-1.36575 -0.00297678 0)
(-1.53382 -0.0182742 0)
(-1.68728 -0.0477507 0)
(-1.83359 -0.069583 0)
(-1.88217 -0.0422869 0)
(-1.87377 -0.0171433 0)
(-1.94352 -0.0799344 0)
(-2.02918 -0.170075 0)
(-2.03111 -0.188428 0)
(-1.96996 -0.14217 0)
(-1.90099 -0.117977 0)
(-1.88177 -0.212562 0)
(-1.91979 -0.430019 0)
(-1.96339 -0.65038 0)
(-0.481982 0.00212066 0)
(-1.03961 0.00155685 0)
(-1.29309 -0.00944836 0)
(-1.42972 -0.0278711 0)
(-1.56419 -0.0503374 0)
(-1.72399 -0.0827268 0)
(-1.85128 -0.0912416 0)
(-1.88127 -0.0437871 0)
(-1.91078 -0.0204418 0)
(-2.02488 -0.0909732 0)
(-2.07937 -0.165854 0)
(-2.03514 -0.170773 0)
(-1.93569 -0.122281 0)
(-1.85327 -0.116614 0)
(-1.81387 -0.237914 0)
(-1.81644 -0.481588 0)
(-1.7822 -0.721378 0)
(-0.481836 0.00241391 0)
(-1.00634 0.000974039 0)
(-1.20402 -0.0135039 0)
(-1.28637 -0.0417079 0)
(-1.4039 -0.0705918 0)
(-1.56036 -0.0961221 0)
(-1.72697 -0.125926 0)
(-1.83195 -0.11726 0)
(-1.86527 -0.055717 0)
(-1.95815 -0.0402864 0)
(-2.08687 -0.10437 0)
(-2.10094 -0.156026 0)
(-2.0188 -0.145512 0)
(-1.89553 -0.0981307 0)
(-1.8017 -0.11208 0)
(-1.73507 -0.257463 0)
(-1.67778 -0.519886 0)
(-1.55878 -0.78686 0)
(-0.468299 0.00151226 0)
(-0.955253 -0.00331358 0)
(-1.10326 -0.0178421 0)
(-1.12069 -0.0497819 0)
(-1.19373 -0.0942979 0)
(-1.3548 -0.129391 0)
(-1.53584 -0.153447 0)
(-1.69929 -0.175635 0)
(-1.78294 -0.14886 0)
(-1.84837 -0.0850164 0)
(-1.99653 -0.0762494 0)
(-2.10596 -0.119837 0)
(-2.08853 -0.145588 0)
(-1.9769 -0.117086 0)
(-1.84305 -0.0753483 0)
(-1.72915 -0.105395 0)
(-1.62795 -0.270277 0)
(-1.4942 -0.543187 0)
(-1.31567 -0.84512 0)
(-0.43528 0.000308773 0)
(-0.870045 -0.0122603 0)
(-0.979475 -0.0300199 0)
(-0.948688 -0.0571609 0)
(-0.958242 -0.105628 0)
(-1.09642 -0.164803 0)
(-1.30125 -0.200274 0)
(-1.4992 -0.219106 0)
(-1.65058 -0.227391 0)
(-1.72629 -0.187107 0)
(-1.84064 -0.132374 0)
(-2.00213 -0.121249 0)
(-2.07977 -0.139593 0)
(-2.03935 -0.137536 0)
(-1.90775 -0.0916085 0)
(-1.76437 -0.0561625 0)
(-1.61612 -0.099511 0)
(-1.46945 -0.279689 0)
(-1.2718 -0.557957 0)
(-1.07777 -0.895431 0)
(-0.38413 -0.000889888 0)
(-0.748641 -0.0204867 0)
(-0.818689 -0.0488161 0)
(-0.762521 -0.0756472 0)
(-0.729864 -0.112616 0)
(-0.813186 -0.177654 0)
(-1.01963 -0.247579 0)
(-1.25211 -0.278698 0)
(-1.46186 -0.287807 0)
(-1.59503 -0.276718 0)
(-1.68715 -0.234029 0)
(-1.83319 -0.190117 0)
(-1.96639 -0.168443 0)
(-2.01585 -0.165154 0)
(-1.94796 -0.133914 0)
(-1.8045 -0.0757104 0)
(-1.63558 -0.0426753 0)
(-1.44251 -0.10019 0)
(-1.24989 -0.292097 0)
(-1.0298 -0.574657 0)
(-0.852705 -0.939314 0)
(-0.32028 -0.00167543 0)
(-0.603976 -0.0264668 0)
(-0.625714 -0.0638174 0)
(-0.547299 -0.102757 0)
(-0.502425 -0.134594 0)
(-0.549165 -0.180516 0)
(-0.715821 -0.260829 0)
(-0.967274 -0.336466 0)
(-1.22035 -0.360944 0)
(-1.42929 -0.353311 0)
(-1.55131 -0.324376 0)
(-1.67196 -0.28818 0)
(-1.80744 -0.247243 0)
(-1.89912 -0.216237 0)
(-1.91499 -0.193711 0)
(-1.81007 -0.138319 0)
(-1.64927 -0.0727862 0)
(-1.43276 -0.0388483 0)
(-1.20056 -0.113168 0)
(-0.985792 -0.313765 0)
(-0.783059 -0.603728 0)
(-0.630436 -0.980728 0)
(-0.248026 -0.00250981 0)
(-0.448679 -0.0303392 0)
(-0.421468 -0.0721063 0)
(-0.311308 -0.121933 0)
(-0.255429 -0.167676 0)
(-0.298741 -0.203046 0)
(-0.435114 -0.256744 0)
(-0.663469 -0.349439 0)
(-0.940812 -0.427335 0)
(-1.20944 -0.443092 0)
(-1.40007 -0.41295 0)
(-1.53168 -0.374956 0)
(-1.6641 -0.342638 0)
(-1.75574 -0.297627 0)
(-1.81018 -0.262932 0)
(-1.77052 -0.221346 0)
(-1.62571 -0.152464 0)
(-1.42337 -0.0794512 0)
(-1.15309 -0.0473798 0)
(-0.906057 -0.142425 0)
(-0.700462 -0.351754 0)
(-0.530002 -0.651963 0)
(-0.39452 -1.02581 0)
(-0.170386 -0.00270837 0)
(-0.283434 -0.0342201 0)
(-0.22047 -0.0780826 0)
(-0.0810867 -0.128121 0)
(-0.000214246 -0.1872 0)
(-0.0389851 -0.239047 0)
(-0.180602 -0.276686 0)
(-0.385007 -0.335803 0)
(-0.646988 -0.438531 0)
(-0.941434 -0.518617 0)
(-1.2037 -0.521187 0)
(-1.37454 -0.471225 0)
(-1.52867 -0.430332 0)
(-1.63994 -0.39097 0)
(-1.68278 -0.341824 0)
(-1.69227 -0.303926 0)
(-1.5819 -0.246052 0)
(-1.39306 -0.171321 0)
(-1.12634 -0.0889593 0)
(-0.819832 -0.0694891 0)
(-0.584091 -0.19111 0)
(-0.400787 -0.411973 0)
(-0.259806 -0.723104 0)
(-0.133053 -1.08193 0)
(-0.0962134 -0.00256732 0)
(-0.110918 -0.0344823 0)
(-0.0193431 -0.084125 0)
(0.126974 -0.132131 0)
(0.232936 -0.186129 0)
(0.218943 -0.255283 0)
(0.075229 -0.313244 0)
(-0.144754 -0.350663 0)
(-0.385047 -0.412879 0)
(-0.66246 -0.526134 0)
(-0.959491 -0.607916 0)
(-1.18284 -0.593869 0)
(-1.35368 -0.536166 0)
(-1.51664 -0.489041 0)
(-1.58303 -0.43375 0)
(-1.58518 -0.383043 0)
(-1.52887 -0.336734 0)
(-1.35188 -0.268191 0)
(-1.10742 -0.187203 0)
(-0.777567 -0.098934 0)
(-0.464774 -0.106528 0)
(-0.25034 -0.259162 0)
(-0.082473 -0.495329 0)
(0.0344883 -0.819529 0)
(0.160668 -1.15278 0)
(-0.0337193 -0.00208246 0)
(0.0466381 -0.0300657 0)
(0.179994 -0.0819524 0)
(0.315206 -0.1361 0)
(0.42331 -0.182068 0)
(0.440271 -0.241798 0)
(0.323194 -0.322791 0)
(0.0910428 -0.386249 0)
(-0.169708 -0.419922 0)
(-0.419536 -0.486182 0)
(-0.704662 -0.612092 0)
(-0.970185 -0.689825 0)
(-1.14254 -0.664798 0)
(-1.32562 -0.612218 0)
(-1.46513 -0.551068 0)
(-1.48187 -0.47828 0)
(-1.44285 -0.425028 0)
(-1.31009 -0.364388 0)
(-1.07571 -0.28874 0)
(-0.769197 -0.197046 0)
(-0.403787 -0.113048 0)
(-0.110551 -0.158799 0)
(0.0907676 -0.340908 0)
(0.25285 -0.599076 0)
(0.352989 -0.939477 0)
(0.493517 -1.23763 0)
(0.0208265 -0.00256146 0)
(0.170099 -0.0242071 0)
(0.352369 -0.0682474 0)
(0.484453 -0.128386 0)
(0.570311 -0.178233 0)
(0.600546 -0.223071 0)
(0.522155 -0.292291 0)
(0.316288 -0.386513 0)
(0.033593 -0.453314 0)
(-0.223745 -0.481734 0)
(-0.477566 -0.557791 0)
(-0.759619 -0.692956 0)
(-0.952792 -0.759021 0)
(-1.08891 -0.740618 0)
(-1.26437 -0.698222 0)
(-1.35181 -0.618817 0)
(-1.32439 -0.532662 0)
(-1.23744 -0.47016 0)
(-1.03433 -0.391419 0)
(-0.747179 -0.307447 0)
(-0.391507 -0.203628 0)
(-0.0285006 -0.136808 0)
(0.235193 -0.222554 0)
(0.436832 -0.428807 0)
(0.594725 -0.718472 0)
(0.695744 -1.07429 0)
(0.869877 -1.33356 0)
(0.0730835 -0.00295886 0)
(0.268502 -0.0221282 0)
(0.477966 -0.0529161 0)
(0.620545 -0.103705 0)
(0.681071 -0.162049 0)
(0.699692 -0.206713 0)
(0.646935 -0.25405 0)
(0.481317 -0.33548 0)
(0.216761 -0.44217 0)
(-0.0597098 -0.50809 0)
(-0.285104 -0.53689 0)
(-0.551864 -0.630653 0)
(-0.803651 -0.761723 0)
(-0.907769 -0.815106 0)
(-1.02048 -0.82342 0)
(-1.14901 -0.789077 0)
(-1.16919 -0.693591 0)
(-1.1055 -0.599349 0)
(-0.966935 -0.517113 0)
(-0.70529 -0.418526 0)
(-0.374247 -0.324067 0)
(0.00126336 -0.212762 0)
(0.333329 -0.172696 0)
(0.576549 -0.290673 0)
(0.782848 -0.519189 0)
(0.937203 -0.847073 0)
(1.06695 -1.21103 0)
(1.2773 -1.4402 0)
(0.119522 -0.00267258 0)
(0.355101 -0.0204532 0)
(0.569429 -0.0451273 0)
(0.713618 -0.077966 0)
(0.760029 -0.127831 0)
(0.754015 -0.18064 0)
(0.708301 -0.223081 0)
(0.57073 -0.276661 0)
(0.33418 -0.36966 0)
(0.0572666 -0.482539 0)
(-0.159101 -0.544564 0)
(-0.354021 -0.589388 0)
(-0.632011 -0.702539 0)
(-0.812677 -0.811373 0)
(-0.845396 -0.864285 0)
(-0.928893 -0.906467 0)
(-0.977686 -0.874769 0)
(-0.928628 -0.772851 0)
(-0.832244 -0.673719 0)
(-0.640748 -0.562919 0)
(-0.336058 -0.444091 0)
(0.0191922 -0.338466 0)
(0.384206 -0.228351 0)
(0.680357 -0.217902 0)
(0.920502 -0.359916 0)
(1.12562 -0.615047 0)
(1.2852 -0.977275 0)
(1.46259 -1.33885 0)
(1.68766 -1.56217 0)
(0.154497 -0.00195555 0)
(0.424903 -0.0159784 0)
(0.644738 -0.0392862 0)
(0.775328 -0.0639043 0)
(0.812122 -0.0938679 0)
(0.781233 -0.139798 0)
(0.727302 -0.187159 0)
(0.610857 -0.232735 0)
(0.393161 -0.293525 0)
(0.11537 -0.392454 0)
(-0.121124 -0.500319 0)
(-0.255518 -0.562537 0)
(-0.439929 -0.641935 0)
(-0.696353 -0.764933 0)
(-0.775322 -0.842035 0)
(-0.770805 -0.91258 0)
(-0.807726 -0.979118 0)
(-0.762972 -0.944841 0)
(-0.653318 -0.850307 0)
(-0.51635 -0.746845 0)
(-0.273343 -0.605004 0)
(0.0520357 -0.468007 0)
(0.407614 -0.351696 0)
(0.745121 -0.251528 0)
(1.02376 -0.267601 0)
(1.27021 -0.43188 0)
(1.47051 -0.718832 0)
(1.64608 -1.10127 0)
(1.86212 -1.45527 0)
(2.07442 -1.70113 0)
(0.176519 -0.00117491 0)
(0.469111 -0.00971045 0)
(0.703666 -0.0288642 0)
(0.823808 -0.0551619 0)
(0.846832 -0.0753408 0)
(0.799375 -0.102244 0)
(0.723206 -0.141796 0)
(0.618003 -0.187737 0)
(0.425648 -0.240863 0)
(0.149163 -0.307073 0)
(-0.124535 -0.401695 0)
(-0.280238 -0.494304 0)
(-0.351329 -0.569696 0)
(-0.537854 -0.693169 0)
(-0.71659 -0.808165 0)
(-0.699488 -0.862849 0)
(-0.681482 -0.960489 0)
(-0.6525 -1.03279 0)
(-0.519441 -0.995945 0)
(-0.360107 -0.919471 0)
(-0.168471 -0.809783 0)
(0.115724 -0.643314 0)
(0.438508 -0.492795 0)
(0.777304 -0.367569 0)
(1.09172 -0.280897 0)
(1.37581 -0.318497 0)
(1.62576 -0.511262 0)
(1.82178 -0.827715 0)
(2.01167 -1.21449 0)
(2.2403 -1.56406 0)
(2.42151 -1.85193 0)
(0.188883 -0.00011905 0)
(0.491366 -0.00477191 0)
(0.740378 -0.0162193 0)
(0.86646 -0.0414326 0)
(0.878356 -0.0665878 0)
(0.820917 -0.083485 0)
(0.720556 -0.105998 0)
(0.606197 -0.138931 0)
(0.438337 -0.188848 0)
(0.182717 -0.251103 0)
(-0.113048 -0.318225 0)
(-0.332647 -0.397398 0)
(-0.394399 -0.472682 0)
(-0.443892 -0.578245 0)
(-0.617096 -0.738588 0)
(-0.677747 -0.829245 0)
(-0.604862 -0.882951 0)
(-0.570305 -1.0025 0)
(-0.459407 -1.06372 0)
(-0.256541 -1.03117 0)
(-0.0531925 -0.975539 0)
(0.199405 -0.85717 0)
(0.504882 -0.679289 0)
(0.81217 -0.521054 0)
(1.13243 -0.388985 0)
(1.44135 -0.312927 0)
(1.73614 -0.372556 0)
(1.98153 -0.598875 0)
(2.17134 -0.936739 0)
(2.36202 -1.31605 0)
(2.57959 -1.66682 0)
(2.71835 -2.00613 0)
(0.198349 0.000137191 0)
(0.505448 -0.00270025 0)
(0.761126 -0.00780768 0)
(0.902719 -0.0252927 0)
(0.917452 -0.053388 0)
(0.857363 -0.077658 0)
(0.741649 -0.0929277 0)
(0.598849 -0.107964 0)
(0.4351 -0.136628 0)
(0.210933 -0.194159 0)
(-0.074815 -0.265522 0)
(-0.339281 -0.32699 0)
(-0.469024 -0.383193 0)
(-0.455726 -0.450548 0)
(-0.516654 -0.598994 0)
(-0.638694 -0.772786 0)
(-0.589877 -0.835861 0)
(-0.504162 -0.905596 0)
(-0.430644 -1.0297 0)
(-0.231296 -1.0716 0)
(0.019867 -1.05395 0)
(0.267546 -1.01364 0)
(0.571618 -0.888833 0)
(0.877695 -0.713765 0)
(1.1725 -0.551527 0)
(1.48597 -0.413918 0)
(1.79948 -0.346124 0)
(2.09254 -0.431073 0)
(2.32508 -0.688801 0)
(2.49994 -1.03986 0)
(2.68184 -1.40555 0)
(2.8702 -1.76417 0)
(2.95248 -2.15948 0)
(0.209923 0.000145969 0)
(0.525569 -0.00303041 0)
(0.780597 -0.00706437 0)
(0.934515 -0.0155097 0)
(0.960037 -0.0368032 0)
(0.909574 -0.0665754 0)
(0.798396 -0.0934515 0)
(0.628129 -0.10644 0)
(0.435543 -0.111574 0)
(0.222918 -0.138043 0)
(-0.0281848 -0.205075 0)
(-0.296717 -0.283692 0)
(-0.486652 -0.333627 0)
(-0.516551 -0.365968 0)
(-0.469647 -0.443737 0)
(-0.544307 -0.634396 0)
(-0.583161 -0.794512 0)
(-0.472636 -0.841664 0)
(-0.393623 -0.929914 0)
(-0.258587 -1.0349 0)
(0.0181146 -1.0589 0)
(0.301944 -1.06216 0)
(0.597167 -1.02874 0)
(0.930535 -0.906708 0)
(1.22821 -0.745095 0)
(1.52392 -0.578858 0)
(1.84263 -0.437343 0)
(2.15297 -0.379648 0)
(2.42752 -0.48969 0)
(2.63786 -0.773456 0)
(2.79364 -1.13072 0)
(2.9625 -1.482 0)
(3.10279 -1.86132 0)
(3.11451 -2.31245 0)
(0.222281 0.000493259 0)
(0.557373 -0.00390403 0)
(0.813379 -0.0106405 0)
(0.972302 -0.0164741 0)
(1.00231 -0.0279449 0)
(0.959006 -0.0500055 0)
(0.87306 -0.0836628 0)
(0.708095 -0.117115 0)
(0.479038 -0.125796 0)
(0.233265 -0.119932 0)
(-0.000960048 -0.143423 0)
(-0.236016 -0.221602 0)
(-0.440149 -0.304476 0)
(-0.535069 -0.33912 0)
(-0.483393 -0.354817 0)
(-0.443429 -0.462056 0)
(-0.506044 -0.677587 0)
(-0.456761 -0.809889 0)
(-0.33388 -0.859902 0)
(-0.257349 -0.954062 0)
(-0.0532869 -1.01774 0)
(0.270845 -1.02966 0)
(0.58201 -1.04975 0)
(0.921444 -1.01963 0)
(1.26233 -0.912497 0)
(1.55848 -0.765736 0)
(1.86789 -0.596554 0)
(2.19043 -0.454576 0)
(2.48138 -0.410601 0)
(2.7242 -0.543251 0)
(2.90604 -0.846359 0)
(3.04674 -1.20296 0)
(3.19437 -1.54768 0)
(3.26801 -1.96437 0)
(3.21158 -2.46666 0)
(0.232154 0.00141898 0)
(0.597796 -0.00364974 0)
(0.870131 -0.0158619 0)
(1.02826 -0.0261036 0)
(1.06057 -0.0328631 0)
(1.00179 -0.0437832 0)
(0.930692 -0.0638492 0)
(0.806564 -0.106911 0)
(0.582745 -0.149488 0)
(0.293134 -0.153148 0)
(0.0163895 -0.133128 0)
(-0.197388 -0.152002 0)
(-0.374219 -0.241982 0)
(-0.487245 -0.326528 0)
(-0.485869 -0.345386 0)
(-0.390857 -0.360763 0)
(-0.376898 -0.505632 0)
(-0.395041 -0.720997 0)
(-0.277847 -0.83002 0)
(-0.169363 -0.897894 0)
(-0.0767366 -0.976266 0)
(0.18257 -0.987513 0)
(0.519407 -0.989901 0)
(0.856066 -1.01352 0)
(1.22342 -0.988379 0)
(1.56345 -0.903817 0)
(1.87276 -0.767313 0)
(2.19876 -0.598294 0)
(2.51212 -0.464092 0)
(2.76939 -0.438057 0)
(2.97292 -0.589504 0)
(3.12631 -0.903388 0)
(3.25489 -1.25292 0)
(3.36378 -1.60788 0)
(3.36974 -2.07576 0)
(3.27602 -2.62366 0)
(0.238505 0.00223419 0)
(0.646004 -0.00290028 0)
(0.955083 -0.0201633 0)
(1.12089 -0.0413381 0)
(1.15382 -0.0519795 0)
(1.0737 -0.0587606 0)
(0.973396 -0.0610151 0)
(0.877766 -0.0802316 0)
(0.705783 -0.137946 0)
(0.423928 -0.19193 0)
(0.0900808 -0.189825 0)
(-0.1711 -0.150015 0)
(-0.327825 -0.164275 0)
(-0.424194 -0.264507 0)
(-0.441624 -0.347896 0)
(-0.356994 -0.356151 0)
(-0.257103 -0.391954 0)
(-0.260624 -0.567534 0)
(-0.217241 -0.763032 0)
(-0.0651511 -0.864854 0)
(0.0275008 -0.954089 0)
(0.158869 -0.996511 0)
(0.444168 -0.960143 0)
(0.770113 -0.947556 0)
(1.123 -0.958205 0)
(1.4953 -0.939926 0)
(1.8395 -0.875357 0)
(2.17393 -0.746945 0)
(2.50551 -0.585762 0)
(2.79338 -0.468055 0)
(3.01058 -0.462591 0)
(3.17548 -0.628637 0)
(3.30301 -0.94302 0)
(3.41042 -1.28455 0)
(3.46904 -1.6683 0)
(3.43547 -2.19385 0)
(3.3508 -2.78343 0)
(0.247051 0.00227869 0)
(0.704721 -0.003392 0)
(1.06929 -0.0245065 0)
(1.26856 -0.0571898 0)
(1.30164 -0.0829504 0)
(1.21533 -0.0940131 0)
(1.05957 -0.0946091 0)
(0.934457 -0.0822114 0)
(0.799118 -0.103867 0)
(0.576972 -0.17905 0)
(0.248451 -0.246884 0)
(-0.084671 -0.234776 0)
(-0.282465 -0.171886 0)
(-0.3677 -0.183348 0)
(-0.387439 -0.289538 0)
(-0.316154 -0.366784 0)
(-0.174597 -0.377095 0)
(-0.0897992 -0.44918 0)
(-0.0842719 -0.640724 0)
(0.0141527 -0.808859 0)
(0.165092 -0.919129 0)
(0.260171 -1.01896 0)
(0.443975 -1.0183 0)
(0.726256 -0.947926 0)
(1.03134 -0.910117 0)
(1.37904 -0.895479 0)
(1.74271 -0.878683 0)
(2.10289 -0.823729 0)
(2.45864 -0.707363 0)
(2.77725 -0.565312 0)
(3.02755 -0.468432 0)
(3.20784 -0.483511 0)
(3.33996 -0.661463 0)
(3.44141 -0.969136 0)
(3.51386 -1.31082 0)
(3.53288 -1.73212 0)
(3.49989 -2.31145 0)
(3.4507 -2.93274 0)
(0.262011 0.00210786 0)
(0.779681 -0.00640543 0)
(1.20709 -0.0302881 0)
(1.46813 -0.0704542 0)
(1.52307 -0.116237 0)
(1.43717 -0.144814 0)
(1.25328 -0.155962 0)
(1.04977 -0.141707 0)
(0.887715 -0.113629 0)
(0.704282 -0.13948 0)
(0.437605 -0.234371 0)
(0.0951102 -0.315331 0)
(-0.176968 -0.286743 0)
(-0.286556 -0.203502 0)
(-0.312653 -0.214942 0)
(-0.270697 -0.318253 0)
(-0.128426 -0.385168 0)
(0.0378176 -0.413257 0)
(0.110661 -0.526402 0)
(0.152179 -0.719435 0)
(0.281636 -0.867487 0)
(0.404119 -0.991259 0)
(0.527085 -1.08027 0)
(0.756866 -1.04432 0)
(1.01993 -0.953604 0)
(1.29949 -0.8812 0)
(1.62311 -0.834199 0)
(1.98094 -0.804471 0)
(2.36201 -0.751501 0)
(2.7197 -0.655254 0)
(3.00528 -0.539761 0)
(3.2156 -0.464419 0)
(3.36863 -0.499115 0)
(3.47468 -0.689382 0)
(3.5474 -0.993848 0)
(3.58257 -1.34502 0)
(3.58665 -1.79733 0)
(3.57326 -2.4127 0)
(3.55795 -3.05221 0)
(0.284375 0.00135081 0)
(0.869949 -0.00935868 0)
(1.3591 -0.0376152 0)
(1.68941 -0.0795742 0)
(1.79877 -0.138639 0)
(1.72602 -0.194681 0)
(1.54797 -0.227912 0)
(1.29231 -0.237318 0)
(1.04997 -0.203497 0)
(0.838654 -0.16103 0)
(0.611047 -0.191722 0)
(0.319679 -0.307465 0)
(0.016456 -0.395211 0)
(-0.148805 -0.346421 0)
(-0.178148 -0.252601 0)
(-0.168523 -0.265191 0)
(-0.07993 -0.353655 0)
(0.102388 -0.41022 0)
(0.267031 -0.466019 0)
(0.345556 -0.613459 0)
(0.435248 -0.800093 0)
(0.562742 -0.945098 0)
(0.654348 -1.07405 0)
(0.819119 -1.13044 0)
(1.0682 -1.07443 0)
(1.30842 -0.970183 0)
(1.56374 -0.860412 0)
(1.86229 -0.776347 0)
(2.22232 -0.719366 0)
(2.61143 -0.666289 0)
(2.94671 -0.597779 0)
(3.18793 -0.511328 0)
(3.36712 -0.454089 0)
(3.50205 -0.509217 0)
(3.58678 -0.717428 0)
(3.62894 -1.0304 0)
(3.6398 -1.39044 0)
(3.64078 -1.85616 0)
(3.64282 -2.48483 0)
(3.66168 -3.13423 0)
(0.316688 0.000179653 0)
(0.972631 -0.0127265 0)
(1.51796 -0.0437291 0)
(1.89921 -0.0860748 0)
(2.07603 -0.144807 0)
(2.0387 -0.220898 0)
(1.87722 -0.285277 0)
(1.63231 -0.326787 0)
(1.33098 -0.333108 0)
(1.0536 -0.281534 0)
(0.800025 -0.22734 0)
(0.546025 -0.265051 0)
(0.266765 -0.398647 0)
(0.0540492 -0.482729 0)
(0.00606488 -0.417191 0)
(0.0277755 -0.326883 0)
(0.0583684 -0.337532 0)
(0.176174 -0.401773 0)
(0.362518 -0.451425 0)
(0.511337 -0.534461 0)
(0.61179 -0.700471 0)
(0.73872 -0.883319 0)
(0.837503 -1.04166 0)
(0.921944 -1.1563 0)
(1.11917 -1.17148 0)
(1.35561 -1.10593 0)
(1.57721 -0.988033 0)
(1.81852 -0.845746 0)
(2.10982 -0.721394 0)
(2.46934 -0.630613 0)
(2.83942 -0.577862 0)
(3.13328 -0.54099 0)
(3.33521 -0.481358 0)
(3.49733 -0.438751 0)
(3.61925 -0.519138 0)
(3.68233 -0.754375 0)
(3.6964 -1.08315 0)
(3.69456 -1.4414 0)
(3.68944 -1.90383 0)
(3.7115 -2.52869 0)
(3.7811 -3.18678 0)
(0.355723 -0.000834624 0)
(1.0854 -0.0156898 0)
(1.68721 -0.0486322 0)
(2.08882 -0.0925431 0)
(2.31573 -0.142042 0)
(2.32643 -0.218995 0)
(2.18227 -0.306357 0)
(1.96456 -0.379145 0)
(1.67698 -0.431424 0)
(1.35501 -0.436066 0)
(1.05875 -0.373228 0)
(0.789648 -0.312892 0)
(0.541256 -0.360128 0)
(0.315584 -0.504361 0)
(0.220356 -0.574551 0)
(0.265951 -0.503518 0)
(0.311887 -0.428724 0)
(0.359669 -0.432716 0)
(0.484183 -0.471259 0)
(0.646752 -0.516588 0)
(0.776489 -0.61675 0)
(0.898852 -0.783796 0)
(1.03053 -0.972454 0)
(1.09939 -1.14758 0)
(1.20616 -1.22911 0)
(1.41009 -1.21001 0)
(1.61654 -1.13854 0)
(1.82713 -1.00409 0)
(2.0744 -0.833751 0)
(2.37481 -0.671354 0)
(2.71655 -0.549806 0)
(3.0411 -0.49958 0)
(3.288 -0.491873 0)
(3.468 -0.453308 0)
(3.62437 -0.42721 0)
(3.73132 -0.540276 0)
(3.76636 -0.809553 0)
(3.7583 -1.14734 0)
(3.7455 -1.49567 0)
(3.74711 -1.94405 0)
(3.8098 -2.55811 0)
(3.94663 -3.2217 0)
(0.388725 -0.000507704 0)
(1.19341 -0.0156162 0)
(1.86856 -0.0512456 0)
(2.28507 -0.100527 0)
(2.51238 -0.14505 0)
(2.57456 -0.203405 0)
(2.44738 -0.295322 0)
(2.23497 -0.387514 0)
(1.9817 -0.46866 0)
(1.67485 -0.53245 0)
(1.35874 -0.538928 0)
(1.07413 -0.473427 0)
(0.829013 -0.414128 0)
(0.621589 -0.473337 0)
(0.478493 -0.61821 0)
(0.497374 -0.669892 0)
(0.59834 -0.60826 0)
(0.657344 -0.555101 0)
(0.718815 -0.551312 0)
(0.828266 -0.569756 0)
(0.955696 -0.609768 0)
(1.06506 -0.711316 0)
(1.1885 -0.868856 0)
(1.29082 -1.07031 0)
(1.35575 -1.24713 0)
(1.49689 -1.29208 0)
(1.68512 -1.25532 0)
(1.86748 -1.1761 0)
(2.07956 -1.02103 0)
(2.34772 -0.824356 0)
(2.65493 -0.633652 0)
(2.95936 -0.49192 0)
(3.227 -0.446314 0)
(3.4361 -0.460085 0)
(3.61075 -0.435888 0)
(3.76212 -0.433378 0)
(3.84329 -0.587414 0)
(3.8439 -0.885802 0)
(3.82231 -1.21986 0)
(3.8144 -1.55799 0)
(3.85214 -1.98933 0)
(3.96799 -2.5883 0)
(4.17362 -3.24616 0)
(0.405319 -6.85039e-05 0)
(1.27169 -0.0102327 0)
(2.03892 -0.0455984 0)
(2.51021 -0.104971 0)
(2.71229 -0.159692 0)
(2.78676 -0.200463 0)
(2.69733 -0.272079 0)
(2.47515 -0.371604 0)
(2.21694 -0.463941 0)
(1.94063 -0.551331 0)
(1.63628 -0.624641 0)
(1.35544 -0.63622 0)
(1.11799 -0.576196 0)
(0.935518 -0.524583 0)
(0.791823 -0.598013 0)
(0.743271 -0.73302 0)
(0.848927 -0.769925 0)
(0.973909 -0.730145 0)
(1.04828 -0.69978 0)
(1.11232 -0.693928 0)
(1.19366 -0.698526 0)
(1.28591 -0.730812 0)
(1.36851 -0.82037 0)
(1.46226 -0.965558 0)
(1.52736 -1.17418 0)
(1.6177 -1.33255 0)
(1.7814 -1.35248 0)
(1.95301 -1.31317 0)
(2.12982 -1.22368 0)
(2.35731 -1.04499 0)
(2.64496 -0.822586 0)
(2.94074 -0.617678 0)
(3.19964 -0.469675 0)
(3.4192 -0.429774 0)
(3.60531 -0.455342 0)
(3.77756 -0.441022 0)
(3.90983 -0.470954 0)
(3.94996 -0.666238 0)
(3.92657 -0.977974 0)
(3.91497 -1.30672 0)
(3.94367 -1.6373 0)
(4.03103 -2.05219 0)
(4.19671 -2.62567 0)
(4.4541 -3.26561 0)
(0.408331 0.000227169 0)
(1.30834 -0.0036111 0)
(2.15864 -0.0295017 0)
(2.73567 -0.0920428 0)
(2.95497 -0.17085 0)
(2.99522 -0.221277 0)
(2.94277 -0.263549 0)
(2.73571 -0.349965 0)
(2.45197 -0.451449 0)
(2.16055 -0.540849 0)
(1.87003 -0.63049 0)
(1.59174 -0.708051 0)
(1.37178 -0.726057 0)
(1.21321 -0.676273 0)
(1.11247 -0.639249 0)
(1.03907 -0.725851 0)
(1.08095 -0.84317 0)
(1.23525 -0.874755 0)
(1.37208 -0.86222 0)
(1.46467 -0.855716 0)
(1.51624 -0.858967 0)
(1.56795 -0.853363 0)
(1.62157 -0.876148 0)
(1.67024 -0.947828 0)
(1.7173 -1.08152 0)
(1.766 -1.27975 0)
(1.88695 -1.40846 0)
(2.05823 -1.41761 0)
(2.22808 -1.38145 0)
(2.41844 -1.2827 0)
(2.66949 -1.07703 0)
(2.96064 -0.836608 0)
(3.22526 -0.632489 0)
(3.44401 -0.487502 0)
(3.63457 -0.453025 0)
(3.80658 -0.48212 0)
(3.95968 -0.477965 0)
(4.04911 -0.541551 0)
(4.05517 -0.767332 0)
(4.04422 -1.08512 0)
(4.07689 -1.41472 0)
(4.15645 -1.74059 0)
(4.28526 -2.13548 0)
(4.48532 -2.67284 0)
(0.407284 -9.16816e-05 0)
(1.3115 0.000929873 0)
(2.20616 -0.00932085 0)
(2.89572 -0.0563737 0)
(3.20819 -0.150087 0)
(3.23067 -0.239772 0)
(3.17063 -0.283867 0)
(3.01765 -0.337604 0)
(2.73707 -0.438496 0)
(2.41299 -0.540558 0)
(2.09913 -0.624931 0)
(1.80781 -0.71169 0)
(1.58058 -0.785613 0)
(1.43778 -0.809693 0)
(1.37585 -0.77081 0)
(1.34899 -0.755737 0)
(1.34247 -0.84866 0)
(1.45349 -0.946152 0)
(1.62484 -0.981233 0)
(1.77678 -0.993971 0)
(1.8807 -1.01838 0)
(1.91366 -1.0397 0)
(1.93386 -1.02876 0)
(1.94309 -1.04113 0)
(1.95765 -1.09433 0)
(1.96966 -1.2168 0)
(2.02493 -1.38677 0)
(2.16288 -1.48535 0)
(2.33848 -1.49021 0)
(2.52193 -1.45733 0)
(2.73697 -1.34683 0)
(3.0083 -1.11784 0)
(3.28441 -0.875405 0)
(3.50895 -0.683849 0)
(3.6993 -0.54157 0)
(3.87221 -0.510383 0)
(4.02369 -0.540202 0)
(4.12972 -0.544828 0)
(4.17645 -0.634927 0)
(4.19151 -0.881338 0)
(4.23387 -1.20754 0)
(4.32465 -1.54359 0)
(4.4442 -1.86604 0)
(4.59933 -2.23626 0)
(0.41009 -0.000408863 0)
(1.29538 0.00162327 0)
(2.19464 0.00589861 0)
(2.94204 -0.0125086 0)
(3.3884 -0.0863486 0)
(3.46254 -0.210211 0)
(3.37634 -0.30126 0)
(3.25742 -0.345461 0)
(3.04109 -0.419401 0)
(2.72574 -0.536877 0)
(2.38188 -0.641775 0)
(2.05902 -0.721301 0)
(1.79181 -0.797823 0)
(1.63363 -0.861532 0)
(1.57641 -0.888578 0)
(1.60496 -0.861813 0)
(1.62973 -0.872702 0)
(1.67932 -0.962168 0)
(1.82398 -1.04243 0)
(1.99861 -1.08168 0)
(2.17014 -1.1165 0)
(2.27311 -1.1825 0)
(2.29145 -1.22797 0)
(2.27031 -1.2202 0)
(2.24205 -1.21928 0)
(2.23316 -1.25802 0)
(2.23668 -1.36565 0)
(2.30619 -1.5002 0)
(2.45336 -1.5725 0)
(2.63636 -1.57235 0)
(2.83753 -1.53807 0)
(3.08061 -1.41198 0)
(3.3609 -1.17261 0)
(3.6102 -0.946106 0)
(3.79796 -0.770272 0)
(3.96455 -0.62554 0)
(4.11457 -0.594839 0)
(4.22374 -0.622809 0)
(4.28377 -0.633926 0)
(4.32782 -0.743571 0)
(4.39538 -1.00458 0)
(4.50452 -1.3402 0)
(4.63911 -1.68732 0)
(4.78433 -2.00529 0)
(4.95226 -2.34926 0)
(0.412903 -0.000287903 0)
(1.2768 0.00152861 0)
(2.14966 0.011538 0)
(2.89886 0.0178209 0)
(3.4304 -0.00937393 0)
(3.62456 -0.117761 0)
(3.54511 -0.261369 0)
(3.41448 -0.348112 0)
(3.26559 -0.400712 0)
(3.02634 -0.500718 0)
(2.70828 -0.640218 0)
(2.36975 -0.753324 0)
(2.05951 -0.829616 0)
(1.84718 -0.887846 0)
(1.76419 -0.938481 0)
(1.79339 -0.963661 0)
(1.88461 -0.95439 0)
(1.94169 -0.988485 0)
(2.02524 -1.06838 0)
(2.16876 -1.13319 0)
(2.34799 -1.16815 0)
(2.53374 -1.22612 0)
(2.62959 -1.34057 0)
(2.63036 -1.41867 0)
(2.57039 -1.42105 0)
(2.5257 -1.40523 0)
(2.50848 -1.43493 0)
(2.52311 -1.52383 0)
(2.61179 -1.62496 0)
(2.76994 -1.67452 0)
(2.95854 -1.66774 0)
(3.17656 -1.62224 0)
(3.44235 -1.48094 0)
(3.71883 -1.24738 0)
(3.93613 -1.05051 0)
(4.09249 -0.887586 0)
(4.2293 -0.736402 0)
(4.3364 -0.699868 0)
(4.40458 -0.724307 0)
(4.4608 -0.741903 0)
(4.54158 -0.864305 0)
(4.67365 -1.13045 0)
(4.83139 -1.47682 0)
(4.99152 -1.83573 0)
(5.15429 -2.14897 0)
(0.404592 0.000859653 0)
(1.26168 0.00328627 0)
(2.10487 0.00949819 0)
(2.83473 0.0258291 0)
(3.36996 0.0347536 0)
(3.67665 -0.0075118 0)
(3.66384 -0.149667 0)
(3.50948 -0.297809 0)
(3.36441 -0.378572 0)
(3.20819 -0.443856 0)
(2.97704 -0.573311 0)
(2.68568 -0.740687 0)
(2.37915 -0.86926 0)
(2.11342 -0.942408 0)
(1.97697 -0.978651 0)
(1.9694 -1.01443 0)
(2.0733 -1.0366 0)
(2.195 -1.05161 0)
(2.2715 -1.10274 0)
(2.3587 -1.17292 0)
(2.48378 -1.21826 0)
(2.67156 -1.23844 0)
(2.85801 -1.32273 0)
(2.94268 -1.48886 0)
(2.91908 -1.60936 0)
(2.84813 -1.62274 0)
(2.808 -1.59747 0)
(2.79484 -1.62092 0)
(2.8305 -1.68875 0)
(2.94576 -1.7609 0)
(3.11492 -1.79538 0)
(3.30657 -1.77828 0)
(3.54056 -1.71264 0)
(3.81669 -1.56034 0)
(4.07489 -1.34669 0)
(4.25793 -1.18434 0)
(4.38169 -1.03182 0)
(4.4755 -0.868535 0)
(4.54172 -0.824098 0)
(4.60814 -0.844969 0)
(4.6962 -0.867485 0)
(4.82529 -0.99035 0)
(5.00258 -1.25399 0)
(5.1854 -1.61155 0)
(5.3625 -1.98 0)
(5.54024 -2.29049 0)
(0.383824 0.00217882 0)
(1.24097 0.00796167 0)
(2.08581 0.00718868 0)
(2.80308 0.0149245 0)
(3.32473 0.0346397 0)
(3.65752 0.045171 0)
(3.7531 -0.0208654 0)
(3.60071 -0.184679 0)
(3.40823 -0.324815 0)
(3.25599 -0.396481 0)
(3.1056 -0.473439 0)
(2.9019 -0.632579 0)
(2.66135 -0.830407 0)
(2.41091 -0.980642 0)
(2.22271 -1.04921 0)
(2.16653 -1.06545 0)
(2.23312 -1.08422 0)
(2.38731 -1.10903 0)
(2.52052 -1.15233 0)
(2.6015 -1.21804 0)
(2.66779 -1.28084 0)
(2.78038 -1.29744 0)
(2.97361 -1.29827 0)
(3.14353 -1.41081 0)
(3.20817 -1.63048 0)
(3.17353 -1.79612 0)
(3.12422 -1.82086 0)
(3.09748 -1.79684 0)
(3.09652 -1.81327 0)
(3.16138 -1.85723 0)
(3.30472 -1.90694 0)
(3.4815 -1.93482 0)
(3.682 -1.90233 0)
(3.92779 -1.81402 0)
(4.19461 -1.65836 0)
(4.42073 -1.47092 0)
(4.56472 -1.34283 0)
(4.64904 -1.192 0)
(4.70941 -1.01825 0)
(4.772 -0.968308 0)
(4.86711 -0.983432 0)
(4.99489 -1.00344 0)
(5.15945 -1.11722 0)
(5.35749 -1.37578 0)
(5.55252 -1.74166 0)
(5.74367 -2.11622 0)
(5.93755 -2.42568 0)
(0.359782 0.00261998 0)
(1.20977 0.0112809 0)
(2.08783 0.0117407 0)
(2.8172 0.00218858 0)
(3.35135 0.0085658 0)
(3.67432 0.0285486 0)
(3.83649 0.0344057 0)
(3.75792 -0.0607994 0)
(3.52092 -0.232205 0)
(3.29447 -0.355863 0)
(3.12986 -0.411912 0)
(2.98694 -0.494485 0)
(2.82106 -0.677621 0)
(2.64285 -0.905135 0)
(2.46861 -1.07754 0)
(2.37562 -1.14137 0)
(2.39622 -1.14122 0)
(2.52827 -1.14347 0)
(2.70922 -1.18033 0)
(2.84745 -1.25336 0)
(2.91364 -1.33838 0)
(2.95494 -1.39311 0)
(3.07329 -1.37156 0)
(3.259 -1.35738 0)
(3.39701 -1.50101 0)
(3.43958 -1.77099 0)
(3.42194 -1.97381 0)
(3.40397 -2.01545 0)
(3.39167 -2.00021 0)