/*--------------------------------*- C++ -*----------------------------------*\
| =========                 |                                                 |
| \\      /  F ield         | OpenFOAM: The Open Source CFD Toolbox           |
|  \\    /   O peration     | Version:  2412                                  |
|   \\  /    A nd           | Website:  www.openfoam.com                      |
|    \\/     M anipulation  |                                                 |
\*---------------------------------------------------------------------------*/
FoamFile
{
    version     2.0;
    format      ascii;
    arch        "LSB;label=32;scalar=64";
    class       volScalarField;
    location    "0.05";
    object      dpdt;
}
// * * * * * * * * * * * * * * * * * * * * * * * * * * * * * * * * * * * * * //

dimensions      [1 -1 -3 0 0 0 0];

internalField   nonuniform List<scalar> 
12008
(
107862.2092
107862.2079
107862.2044
107862.1976
107862.1874
107862.1738
107862.1568
107862.1363
107862.1123
107862.0847
107862.0534
107862.0182
107861.9791
107861.9357
107861.888
107861.8356
107861.7782
107861.7155
107861.6471
107861.5726
107861.4915
107861.4032
107861.3072
107861.2031
107861.0901
107860.9678
107860.8356
107860.6934
107860.5408
107860.378
107860.2054
107860.0239
107859.8347
107859.6398
107859.4417
107859.2432
107859.0477
107858.859
107858.6806
107858.5163
107858.3694
107858.2432
107858.1401
107858.062
107858.01
107857.9842
107857.984
107858.008
107858.0542
107858.1203
107858.2037
107858.3016
107858.4114
107858.5305
107858.6566
107858.7876
107858.9216
107859.057
107859.1926
107859.3271
107859.4598
107859.5899
107859.7167
107859.8398
107859.9589
107860.0736
107860.1839
107860.2895
107860.3904
107860.4866
107860.5781
107860.6649
107860.7471
107860.8247
107860.8979
107860.9667
107861.0314
107861.0919
107861.1485
107861.2013
107861.2504
107861.2958
107861.3379
107861.3766
107861.4121
107861.4445
107861.4737
107861.4997
107861.5225
107861.5421
107861.5582
107861.5706
107861.5791
107861.5835
107861.5834
107861.5788
107861.5695
107861.5554
107861.5365
107861.513
107861.4851
107861.4531
107861.4176
107861.3792
107861.3386
107861.2968
107861.2547
107861.2132
107861.1732
107861.1357
107861.1012
107861.0705
107861.0441
107861.0225
107861.0059
107860.9943
107860.9878
107860.9861
107860.9889
107860.996
107861.0067
107861.0208
107861.0377
107861.057
107861.078
107861.1004
107861.1236
107861.1473
107861.1709
107861.1941
107861.2164
107861.2376
107861.2574
107861.2755
107861.2918
107861.306
107861.3182
107861.3282
107861.3357
107861.3403
107862.2059
107862.2046
107862.2008
107862.1938
107862.1835
107862.1698
107862.1527
107862.1321
107862.1081
107862.0804
107862.049
107862.0138
107861.9746
107861.9313
107861.8836
107861.8313
107861.7742
107861.7117
107861.6435
107861.5694
107861.4887
107861.4011
107861.306
107861.2027
107861.0909
107860.9699
107860.8392
107860.6984
107860.5474
107860.3862
107860.215
107860.0346
107859.8463
107859.6516
107859.4531
107859.2537
107859.0568
107858.866
107858.685
107858.5176
107858.3674
107858.2376
107858.1311
107858.0499
107857.9953
107857.9675
107857.966
107857.9893
107858.0354
107858.1019
107858.186
107858.285
107858.396
107858.5165
107858.6439
107858.7763
107858.9116
107859.0483
107859.1849
107859.3206
107859.4542
107859.5851
107859.7126
107859.8363
107859.9559
107860.0711
107860.1817
107860.2876
107860.3888
107860.4851
107860.5767
107860.6636
107860.7458
107860.8234
107860.8965
107860.9653
107861.0299
107861.0903
107861.1468
107861.1994
107861.2483
107861.2936
107861.3355
107861.374
107861.4093
107861.4414
107861.4704
107861.4963
107861.5189
107861.5382
107861.5541
107861.5663
107861.5746
107861.5786
107861.5782
107861.5733
107861.5637
107861.5492
107861.53
107861.5062
107861.4779
107861.4456
107861.4097
107861.371
107861.3302
107861.2882
107861.246
107861.2044
107861.1646
107861.1272
107861.093
107861.0625
107861.0366
107861.0154
107860.9993
107860.9884
107860.9824
107860.9813
107860.9848
107860.9924
107861.0037
107861.0183
107861.0357
107861.0554
107861.0768
107861.0996
107861.1232
107861.1471
107861.171
107861.1943
107861.2169
107861.2382
107861.2581
107861.2763
107861.2926
107861.3069
107861.3191
107861.329
107861.3364
107861.3409
107862.2016
107862.2005
107862.1966
107862.1896
107862.1792
107862.1655
107862.1484
107862.1278
107862.1037
107862.0761
107862.0448
107862.0097
107861.9707
107861.9276
107861.8803
107861.8283
107861.7715
107861.7095
107861.6421
107861.5687
107861.489
107861.4025
107861.3086
107861.2069
107861.0966
107860.9773
107860.8483
107860.7093
107860.5599
107860.4
107860.2296
107860.0493
107859.8602
107859.6638
107859.4625
107859.2593
107859.0575
107858.8609
107858.6737
107858.4997
107858.343
107858.2071
107858.0952
107858.0097
107857.952
107857.9226
107857.9208
107857.9451
107857.9933
107858.0627
107858.1502
107858.2528
107858.3676
107858.4916
107858.6225
107858.7581
107858.8964
107859.0357
107859.1746
107859.3122
107859.4474
107859.5796
107859.7083
107859.833
107859.9533
107860.0691
107860.1802
107860.2864
107860.3878
107860.4844
107860.5761
107860.6631
107860.7452
107860.8227
107860.8957
107860.9643
107861.0287
107861.0889
107861.1452
107861.1976
107861.2462
107861.2913
107861.3329
107861.3711
107861.4062
107861.4381
107861.4669
107861.4926
107861.5151
107861.5343
107861.5501
107861.5623
107861.5704
107861.5743
107861.5738
107861.5687
107861.5588
107861.544
107861.5243
107861.4998
107861.4708
107861.4376
107861.4008
107861.3611
107861.3193
107861.2762
107861.2329
107861.1905
107861.1501
107861.1123
107861.0776
107861.047
107861.0212
107861.0003
107860.9848
107860.9745
107860.9693
107860.9691
107860.9735
107860.9822
107860.9945
107861.0102
107861.0285
107861.0491
107861.0715
107861.0951
107861.1194
107861.144
107861.1685
107861.1924
107861.2154
107861.2372
107861.2574
107861.2759
107861.2925
107861.3069
107861.3191
107861.3291
107861.3366
107861.3412
107862.1965
107862.1958
107862.192
107862.1849
107862.1746
107862.1609
107862.1439
107862.1234
107862.0995
107862.072
107862.0409
107862.0061
107861.9675
107861.9249
107861.878
107861.8267
107861.7707
107861.7097
107861.6433
107861.5712
107861.493
107861.4081
107861.3161
107861.2163
107861.1081
107860.991
107860.8641
107860.7271
107860.5793
107860.4203
107860.2501
107860.0689
107859.8774
107859.677
107859.4697
107859.2591
107859.0486
107858.8424
107858.645
107858.4607
107858.294
107858.1489
107858.0292
107857.9379
107857.8768
107857.8464
107857.8459
107857.8734
107857.9263
107858.0014
107858.0953
107858.2044
107858.3258
107858.4562
107858.5929
107858.7337
107858.8765
107859.0197
107859.1621
107859.3024
107859.44
107859.5742
107859.7044
107859.8303
107859.9516
107860.0681
107860.1797
107860.2864
107860.3881
107860.4848
107860.5766
107860.6635
107860.7457
107860.8232
107860.8958
107860.964
107861.0281
107861.0881
107861.144
107861.196
107861.2443
107861.289
107861.3302
107861.3682
107861.4029
107861.4346
107861.4632
107861.4887
107861.5112
107861.5304
107861.5463
107861.5587
107861.567
107861.571
107861.5705
107861.5653
107861.5552
107861.54
107861.5197
107861.4944
107861.4643
107861.4297
107861.3913
107861.3498
107861.306
107861.2609
107861.2157
107861.1715
107861.1295
107861.0903
107861.0546
107861.0235
107860.9974
107860.9767
107860.9616
107860.952
107860.9479
107860.949
107860.9547
107860.9648
107860.9787
107860.9959
107861.0158
107861.0378
107861.0616
107861.0865
107861.112
107861.1378
107861.1633
107861.1881
107861.2119
107861.2344
107861.2552
107861.2742
107861.2912
107861.306
107861.3184
107861.3285
107861.3361
107861.341
107862.191
107862.1905
107862.1868
107862.1797
107862.1695
107862.1559
107862.139
107862.1187
107862.095
107862.0678
107862.0371
107862.0029
107861.9648
107861.9229
107861.8768
107861.8264
107861.7715
107861.7117
107861.6469
107861.5765
107861.5002
107861.4175
107861.3278
107861.2305
107861.1251
107861.0106
107860.8864
107860.7518
107860.6059
107860.4481
107860.2779
107860.0951
107859.8995
107859.6926
107859.477
107859.2556
107859.0325
107858.8126
107858.6007
107858.4019
107858.221
107858.0631
107857.9328
107857.8339
107857.7686
107857.7376
107857.7399
107857.773
107857.8334
107857.9175
107858.0212
107858.1403
107858.2712
107858.4105
107858.5553
107858.7032
107858.8522
107859.0008
107859.1475
107859.2916
107859.4322
107859.5688
107859.7009
107859.8283
107859.9508
107860.0682
107860.1804
107860.2875
107860.3895
107860.4863
107860.5781
107860.665
107860.747
107860.8244
107860.8968
107860.9643
107861.0279
107861.0875
107861.143
107861.1945
107861.2423
107861.2865
107861.3273
107861.3648
107861.3992
107861.4306
107861.459
107861.4845
107861.507
107861.5264
107861.5426
107861.5553
107861.564
107861.5683
107861.568
107861.5629
107861.5526
107861.5371
107861.516
107861.4896
107861.458
107861.4215
107861.3808
107861.3366
107861.29
107861.2419
107861.1937
107861.1468
107861.1024
107861.061
107861.0237
107860.9915
107860.9649
107860.9442
107860.9296
107860.921
107860.9182
107860.9208
107860.9284
107860.9405
107860.9564
107860.9757
107860.9976
107861.0217
107861.0474
107861.0741
107861.1013
107861.1286
107861.1555
107861.1816
107861.2065
107861.2299
107861.2516
107861.2713
107861.2889
107861.3042
107861.317
107861.3273
107861.3351
107861.3401
107862.1852
107862.1847
107862.181
107862.1741
107862.1639
107862.1505
107862.1338
107862.1138
107862.0904
107862.0637
107862.0334
107861.9998
107861.9626
107861.9215
107861.8764
107861.8272
107861.7737
107861.7156
107861.6526
107861.5843
107861.5104
107861.4303
107861.3436
107861.2494
107861.1472
107861.0362
107860.9153
107860.7838
107860.6404
107860.4843
107860.3141
107860.1284
107859.9276
107859.7132
107859.4863
107859.2503
107859.0104
107858.7721
107858.5411
107858.3229
107858.1232
107857.9481
107857.8035
107857.6944
107857.6239
107857.5931
107857.6003
107857.6419
107857.7137
107857.8107
107857.9279
107858.0605
107858.2042
107858.3552
107858.5105
107858.6676
107858.8245
107858.9796
107859.1319
107859.2804
107859.4246
107859.564
107859.6984
107859.8275
107859.9513
107860.0696
107860.1825
107860.29
107860.3922
107860.4891
107860.5809
107860.6675
107860.7493
107860.8262
107860.8986
107860.9655
107861.028
107861.0872
107861.1422
107861.1931
107861.2402
107861.2838
107861.324
107861.361
107861.395
107861.426
107861.4542
107861.4796
107861.5022
107861.5219
107861.5386
107861.552
107861.5613
107861.566
107861.5661
107861.5613
107861.551
107861.5351
107861.5134
107861.4857
107861.4522
107861.4132
107861.3695
107861.3218
107861.2712
107861.2191
107861.1668
107861.116
107861.0681
107861.0239
107860.9843
107860.9505
107860.9231
107860.9023
107860.8883
107860.8809
107860.8797
107860.8844
107860.8944
107860.909
107860.9276
107860.9496
107860.9742
107861.0009
107861.029
107861.058
107861.0874
107861.1166
107861.1453
107861.173
107861.1993
107861.224
107861.2467
107861.2674
107861.2857
107861.3016
107861.3149
107861.3256
107861.3336
107861.3387
107862.1789
107862.1783
107862.1747
107862.1679
107862.1578
107862.1446
107862.1282
107862.1086
107862.0856
107862.0594
107862.0298
107861.997
107861.9606
107861.9206
107861.8768
107861.829
107861.7772
107861.721
107861.6601
107861.5944
107861.5232
107861.4463
107861.363
107861.2726
107861.1744
107861.0675
107860.9508
107860.8233
107860.6836
107860.5297
107860.3586
107860.1704
107859.9653
107859.7415
107859.5002
107859.2455
107858.9836
107858.7217
107858.4662
107858.2233
107857.9991
107857.8012
107857.6376
107857.5154
107857.439
107857.4093
107857.4239
107857.478
107857.5656
107857.6803
107857.8155
107857.9657
107858.1258
107858.2916
107858.46
107858.6282
107858.7945
107858.9574
107859.116
107859.2697
107859.4179
107859.5605
107859.6973
107859.8283
107859.9533
107860.0726
107860.1862
107860.2941
107860.3964
107860.4933
107860.5849
107860.6713
107860.7526
107860.8291
107860.9009
107860.9671
107861.0287
107861.0871
107861.1414
107861.1915
107861.2378
107861.2806
107861.3201
107861.3564
107861.3898
107861.4204
107861.4484
107861.4738
107861.4966
107861.5167
107861.5339
107861.5482
107861.5584
107861.5639
107861.5647
107861.5604
107861.5504
107861.5343
107861.5118
107861.4826
107861.4469
107861.405
107861.3575
107861.3053
107861.2497
107861.1923
107861.1347
107861.0786
107861.0261
107860.9783
107860.9356
107860.8998
107860.8713
107860.8504
107860.8371
107860.8312
107860.8322
107860.8395
107860.8525
107860.8703
107860.8923
107860.9176
107860.9455
107860.9753
107861.0065
107861.0383
107861.0703
107861.102
107861.1328
107861.1624
107861.1905
107861.2167
107861.2408
107861.2626
107861.2818
107861.2985
107861.3124
107861.3234
107861.3317
107861.3369
107862.1719
107862.1714
107862.1678
107862.161
107862.1512
107862.1382
107862.1221
107862.103
107862.0806
107862.0549
107862.026
107861.994
107861.9588
107861.92
107861.8776
107861.8315
107861.7815
107861.7275
107861.6691
107861.6062
107861.5383
107861.4651
107861.3857
107861.2996
107861.206
107861.104
107860.9923
107860.87
107860.7352
107860.5834
107860.4137
107860.2256
107860.0153
107859.7807
107859.5217
107859.243
107858.9535
107858.6622
107858.3766
107858.1031
107857.848
107857.6201
107857.4311
107857.2916
107857.2079
107857.1808
107857.2067
107857.2785
107857.3878
107857.5259
107857.6848
107857.8572
107858.0377
107858.2216
107858.4054
107858.5868
107858.7639
107858.9356
107859.1013
107859.2605
107859.4131
107859.559
107859.6983
107859.8311
107859.9575
107860.0776
107860.1917
107860.2999
107860.4022
107860.499
107860.5903
107860.6762
107860.757
107860.8328
107860.904
107860.9693
107861.0298
107861.0872
107861.1405
107861.1896
107861.2349
107861.2767
107861.3152
107861.3506
107861.3833
107861.4134
107861.441
107861.4664
107861.4894
107861.51
107861.5281
107861.5435
107861.5549
107861.5615
107861.5633
107861.56
107861.5506
107861.5346
107861.5114
107861.4808
107861.4426
107861.3971
107861.3449
107861.2872
107861.2253
107861.1612
107861.0967
107861.0339
107860.9757
107860.923
107860.8766
107860.8382
107860.8085
107860.7875
107860.7753
107860.7714
107860.7751
107860.7858
107860.8025
107860.8243
107860.8503
107860.8797
107860.9116
107860.9453
107860.9801
107861.0153
107861.0504
107861.0849
107861.1183
107861.1502
107861.1803
107861.2083
107861.2339
107861.257
107861.2774
107861.2949
107861.3095
107861.321
107861.3295
107861.3348
107862.1643
107862.1638
107862.1602
107862.1536
107862.1439
107862.1312
107862.1156
107862.0969
107862.0751
107862.0502
107862.0221
107861.991
107861.9568
107861.9194
107861.8786
107861.8343
107861.7864
107861.7348
107861.6791
107861.6192
107861.5546
107861.4852
107861.4105
107861.3295
107861.2414
107861.1455
107861.0408
107860.9242
107860.7932
107860.6473
107860.4826
107860.2949
107860.0806
107859.8352
107859.5553
107859.2459
107858.9212
107858.5941
107858.2727
107857.9627
107857.6693
107857.4023
107857.1787
107857.0158
107856.9229
107856.901
107856.9441
107857.0411
107857.1797
107857.3485
107857.5372
107857.7373
107857.9424
107858.1477
107858.3495
107858.5455
107858.7346
107858.9159
107859.0891
107859.2541
107859.4111
107859.5603
107859.702
107859.8365
107859.964
107860.0849
107860.1994
107860.3077
107860.4099
107860.5064
107860.5972
107860.6825
107860.7626
107860.8376
107860.9079
107860.9719
107861.0312
107861.0873
107861.1395
107861.1872
107861.2312
107861.2717
107861.3089
107861.3432
107861.3749
107861.4043
107861.4315
107861.4567
107861.4799
107861.5012
107861.5203
107861.537
107861.55
107861.558
107861.5614
107861.5595
107861.5512
107861.5357
107861.5122
107861.4802
107861.4393
107861.3898
107861.3322
107861.2677
107861.198
107861.1255
107861.0524
107860.9814
107860.9157
107860.8567
107860.8059
107860.7646
107860.7334
107860.7126
107860.7019
107860.7006
107860.7078
107860.7226
107860.744
107860.7707
107860.8016
107860.8359
107860.8726
107860.9109
107860.95
107860.9892
107861.0279
107861.0657
107861.1021
107861.1366
107861.169
107861.1991
107861.2264
107861.251
107861.2726
107861.2911
107861.3064
107861.3185
107861.3273
107861.3327
107862.156
107862.1554
107862.1519
107862.1454
107862.1359
107862.1236
107862.1083
107862.0902
107862.0691
107862.045
107862.0179
107861.9878
107861.9548
107861.9186
107861.8795
107861.8371
107861.7914
107861.7422
107861.6894
107861.6327
107861.572
107861.5068
107861.4367
107861.3614
107861.2797
107861.1905
107861.0919
107860.983
107860.8614
107860.7233
107860.5646
107860.38
107860.1646
107859.9101
107859.6064
107859.2573
107858.8874
107858.5176
107858.1551
107857.8036
107857.4641
107857.1451
107856.8734
107856.6781
107856.5745
107856.5625
107856.6305
107856.7612
107856.9382
107857.1468
107857.3733
107857.6074
107857.8424
107858.0729
107858.295
107858.5072
107858.7092
107858.9004
107859.0811
107859.2518
107859.413
107859.5653
107859.7091
107859.845
107859.9735
107860.0949
107860.2095
107860.3176
107860.4196
107860.5155
107860.6057
107860.6902
107860.7694
107860.8433
107860.9125
107860.9749
107861.0327
107861.0875
107861.138
107861.184
107861.2262
107861.265
107861.3006
107861.3334
107861.3639
107861.3923
107861.4188
107861.4438
107861.4673
107861.4891
107861.5094
107861.5276
107861.5426
107861.5527
107861.5581
107861.5584
107861.5519
107861.5375
107861.5142
107861.4811
107861.4375
107861.3834
107861.3195
107861.2469
107861.1678
107861.0847
107861.001
107860.9198
107860.8445
107860.7781
107860.7219
107860.6771
107860.6446
107860.6243
107860.6157
107860.6179
107860.6297
107860.6498
107860.6768
107860.7094
107860.7464
107860.7865
107860.8289
107860.8725
107860.9165
107860.9603
107861.0032
107861.0447
107861.0844
107861.1219
107861.1569
107861.1892
107861.2186
107861.2448
107861.2678
107861.2874
107861.3035
107861.3161
107861.3253
107861.3308
107862.1469
107862.1462
107862.1428
107862.1364
107862.1272
107862.1151
107862.1003
107862.0828
107862.0624
107862.0391
107862.013
107861.984
107861.9523
107861.9176
107861.88
107861.8395
107861.796
107861.7492
107861.6993
107861.6459
107861.5894
107861.5288
107861.463
107861.3928
107861.3182
107861.2361
107861.146
107861.0463
107860.9348
107860.8076
107860.6589
107860.4818
107860.2705
107860.0123
107859.6835
107859.2807
107858.8497
107858.4302
107858.0238
107857.6293
107857.2368
107856.8478
107856.5061
107856.2651
107856.1478
107856.149
107856.2509
107856.4309
107856.6633
107856.925
107857.1998
107857.4761
107857.7452
107858.0023
107858.2457
107858.4752
107858.6904
107858.8914
107859.0793
107859.2552
107859.4201
107859.5749
107859.7204
107859.8573
107859.9863
107860.1078
107860.2222
107860.33
107860.4314
107860.5266
107860.6159
107860.6994
107860.7774
107860.85
107860.9175
107860.9785
107861.0343
107861.0874
107861.1357
107861.1795
107861.2195
107861.2561
107861.2896
107861.3205
107861.3494
107861.3765
107861.4022
107861.4268
107861.4504
107861.473
107861.4944
107861.5141
107861.5319
107861.5451
107861.553
107861.5561
107861.5522
107861.5399
107861.5175
107861.4837
107861.4375
107861.3786
107861.3073
107861.2251
107861.1343
107861.0384
107860.9413
107860.8474
107860.7606
107860.6848
107860.622
107860.5738
107860.54
107860.5208
107860.5154
107860.5222
107860.5398
107860.5666
107860.6006
107860.6404
107860.6845
107860.7316
107860.7805
107860.8303
107860.88
107860.9289
107860.9765
107861.0222
107861.0657
107861.1065
107861.1444
107861.1792
107861.2107
107861.2387
107861.2631
107861.2839
107861.3009
107861.3142
107861.3237
107861.3293
107862.1368
107862.1361
107862.1327
107862.1265
107862.1175
107862.1058
107862.0914
107862.0744
107862.0549
107862.0324
107862.0073
107861.9794
107861.9489
107861.9156
107861.8797
107861.8411
107861.7997
107861.7553
107861.7085
107861.6577
107861.6035
107861.5476
107861.4885
107861.4236
107861.3537
107861.2791
107861.1981
107861.1093
107861.0101
107860.897
107860.7631
107860.599
107860.3995
107860.1491
107859.7978
107859.3203
107858.7997
107858.3284
107857.8814
107857.4508
107857.0013
107856.515
107856.0656
107855.7558
107855.6179
107855.6444
107855.8044
107856.0559
107856.3607
107856.6895
107857.0224
107857.3463
107857.6537
107857.9413
107858.2084
107858.4549
107858.6817
107858.8914
107859.0857
107859.2658
107859.4335
107859.59
107859.7364
107859.8737
107860.0027
107860.1239
107860.2378
107860.3449
107860.4454
107860.5397
107860.6278
107860.7102
107860.7868
107860.8581
107860.9226
107860.9819
107861.0362
107861.0866
107861.1321
107861.1732
107861.2104
107861.2441
107861.2751
107861.3037
107861.3306
107861.3562
107861.3809
107861.4051
107861.4288
107861.4522
107861.4749
107861.4966
107861.5173
107861.534
107861.5455
107861.5525
107861.5523
107861.543
107861.5224
107861.4887
107861.4402
107861.376
107861.2964
107861.2026
107861.0977
107860.9857
107860.872
107860.7621
107860.6613
107860.5741
107860.5042
107860.4514
107860.4173
107860.4003
107860.3993
107860.4124
107860.4376
107860.4726
107860.5153
107860.5637
107860.6163
107860.6714
107860.7279
107860.7847
107860.8408
107860.8956
107860.9484
107860.9988
107861.0463
107861.0907
107861.1318
107861.1693
107861.203
107861.233
107861.259
107861.281
107861.299
107861.3129
107861.3228
107861.3285
107862.1259
107862.1251
107862.1217
107862.1156
107862.1069
107862.0955
107862.0815
107862.0649
107862.0461
107862.0248
107862.0006
107861.9738
107861.9444
107861.9124
107861.878
107861.8414
107861.8023
107861.7591
107861.7135
107861.6677
107861.6176
107861.5632
107861.5064
107861.4467
107861.3832
107861.316
107861.2442
107861.1664
107861.0806
107860.9842
107860.8697
107860.7247
107860.5463
107860.3237
107859.9653
107859.3949
107858.7345
107858.2209
107857.7383
107857.2895
107856.7864
107856.1639
107855.5335
107855.1083
107854.948
107855.0271
107855.2794
107855.6339
107856.036
107856.4495
107856.8518
107857.2304
107857.5796
107857.898
107858.187
107858.4489
107858.6869
107858.9039
107859.1023
107859.2851
107859.4542
107859.6113
107859.7577
107859.8947
107860.023
107860.1434
107860.2564
107860.3624
107860.4618
107860.5548
107860.6416
107860.7225
107860.7975
107860.8665
107860.9289
107860.9851
107861.0374
107861.0845
107861.1265
107861.1641
107861.1979
107861.2284
107861.2564
107861.2824
107861.3072
107861.3312
107861.3549
107861.3786
107861.4026
107861.427
107861.4516
107861.4765
107861.499
107861.5187
107861.536
107861.5481
107861.553
107861.548
107861.5304
107861.4976
107861.4471
107861.3773
107861.288
107861.1804
107861.0579
107860.9258
107860.7911
107860.6612
107860.5432
107860.4427
107860.3634
107860.3069
107860.2737
107860.2603
107860.2657
107860.2873
107860.3221
107860.3674
107860.4206
107860.4794
107860.5419
107860.6065
107860.6716
107860.7364
107860.7997
107860.8609
107860.9195
107860.9749
107861.0269
107861.0752
107861.1196
107861.1599
107861.1961
107861.228
107861.2557
107861.279
107861.298
107861.3126
107861.3228
107861.3286
107862.1138
107862.1129
107862.1096
107862.1036
107862.0951
107862.0841
107862.0705
107862.0544
107862.0357
107862.0152
107861.9925
107861.967
107861.9389
107861.9081
107861.8743
107861.8378
107861.8003
107861.7615
107861.7183
107861.6717
107861.6233
107861.5721
107861.5183
107861.4621
107861.4032
107861.3417
107861.2776
107861.2097
107861.1364
107861.0566
107860.9639
107860.8426
107860.6979
107860.5689
107860.2836
107859.5665
107858.5759
107858.0331
107857.5549
107857.1705
107856.645
107855.8212
107854.863
107854.2546
107854.0845
107854.2701
107854.6715
107855.1737
107855.7043
107856.2219
107856.7043
107857.1419
107857.5332
107857.8807
107858.1891
107858.4635
107858.7092
107858.9304
107859.1311
107859.3146
107859.4833
107859.6394
107859.7848
107859.9204
107860.0474
107860.1663
107860.2779
107860.3825
107860.4804
107860.5719
107860.6571
107860.7364
107860.8097
107860.8748
107860.9348
107860.9885
107861.0372
107861.0802
107861.1182
107861.1517
107861.1816
107861.2086
107861.2335
107861.257
107861.2797
107861.3022
107861.325
107861.3485
107861.373
107861.3985
107861.4252
107861.4534
107861.4784
107861.5022
107861.5263
107861.5448
107861.5559
107861.5566
107861.5435
107861.5127
107861.4608
107861.3851
107861.2844
107861.1599
107861.0154
107860.8577
107860.6961
107860.5409
107860.4015
107860.2851
107860.196
107860.1373
107860.1046
107860.098
107860.1126
107860.1454
107860.1926
107860.2508
107860.3168
107860.3879
107860.462
107860.5373
107860.6123
107860.6859
107860.7572
107860.8255
107860.8903
107860.9512
107861.0079
107861.0603
107861.1082
107861.1515
107861.1902
107861.2243
107861.2537
107861.2783
107861.2983
107861.3136
107861.3242
107861.3301
107862.1006
107862.0996
107862.0963
107862.0904
107862.0822
107862.0714
107862.0582
107862.0426
107862.0244
107862.0037
107861.981
107861.9562
107861.9291
107861.8997
107861.8683
107861.8339
107861.7963
107861.7567
107861.7152
107861.6705
107861.6231
107861.573
107861.5203
107861.4655
107861.409
107861.3512
107861.2925
107861.2326
107861.1703
107861.1062
107861.0367
107860.9387
107860.8111
107860.8735
107860.8868
107859.8117
107858.1683
107857.711
107857.3037
107857.1544
107856.6502
107855.5167
107854.0165
107853.0933
107852.9451
107853.3459
107853.9902
107854.6987
107855.3928
107856.0329
107856.6021
107857.0985
107857.5279
107857.8992
107858.2216
107858.5034
107858.7521
107858.9738
107859.1734
107859.3548
107859.5212
107859.6749
107859.8177
107859.951
107860.0758
107860.1927
107860.3024
107860.4052
107860.5013
107860.591
107860.6742
107860.7514
107860.8217
107860.8851
107860.9401
107860.9907
107861.0349
107861.0732
107861.1064
107861.1355
107861.1614
107861.1851
107861.2072
107861.2286
107861.2498
107861.2712
107861.2935
107861.3171
107861.3422
107861.3689
107861.3974
107861.4276
107861.4579
107861.4888
107861.5189
107861.5446
107861.5633
107861.5714
107861.5642
107861.537
107861.4846
107861.4029
107861.2891
107861.1437
107860.9712
107860.7803
107860.5837
107860.396
107860.2301
107860.0953
107859.9964
107859.9346
107859.9069
107859.9107
107859.9381
107859.9857
107860.0487
107860.1228
107860.2042
107860.2898
107860.3773
107860.4648
107860.5509
107860.6343
107860.7142
107860.7902
107860.8616
107860.9283
107860.99
107861.0467
107861.0982
107861.1446
107861.1859
107861.2221
107861.2532
107861.2793
107861.3003
107861.3162
107861.3272
107861.3331
107862.0861
107862.0851
107862.0817
107862.076
107862.0679
107862.0575
107862.0447
107862.0294
107862.0118
107861.9918
107861.9693
107861.9447
107861.918
107861.889
107861.8578
107861.8244
107861.7881
107861.7492
107861.7075
107861.6625
107861.6144
107861.5635
107861.51
107861.4549
107861.3989
107861.3429
107861.288
107861.2338
107861.1785
107861.1247
107861.0731
107860.9804
107860.8053
107861.1178
107862.1769
107860.3002
107859.1227
107857.5861
107857.0907
107857.3083
107856.7333
107855.0494
107852.8738
107851.4475
107851.4194
107852.2594
107853.2724
107854.2534
107855.1454
107855.9198
107856.5742
107857.1212
107857.5787
107857.9636
107858.2909
107858.5726
107858.8183
107859.0355
107859.23
107859.4064
107859.568
107859.7173
107859.8563
107859.9861
107860.1079
107860.2222
107860.3295
107860.4302
107860.5243
107860.6119
107860.693
107860.7682
107860.8338
107860.8937
107860.9457
107860.9911
107861.0298
107861.0627
107861.091
107861.1159
107861.1384
107861.1595
107861.1797
107861.1998
107861.2202
107861.2413
107861.2636
107861.2875
107861.3133
107861.3414
107861.3719
107861.4045
107861.44
107861.478
107861.5151
107861.549
107861.5767
107861.5939
107861.5951
107861.5737
107861.5226
107861.4352
107861.3065
107861.1355
107860.9269
107860.6922
107860.4494
107860.2194
107860.0205
107859.8643
107859.7558
107859.6942
107859.6775
107859.6933
107859.74
107859.8073
107859.8903
107859.9839
107860.0836
107860.1862
107860.289
107860.3903
107860.4884
107860.5825
107860.6718
107860.7558
107860.8343
107860.907
107860.9739
107861.0349
107861.0902
107861.1398
107861.1837
107861.222
107861.2548
107861.2822
107861.3042
107861.3208
107861.3321
107861.3381
107862.0704
107862.0692
107862.0659
107862.0602
107862.0523
107862.0421
107862.0296
107862.0147
107861.9975
107861.978
107861.9562
107861.9322
107861.9058
107861.8772
107861.8462
107861.8126
107861.7759
107861.7361
107861.6929
107861.6462
107861.596
107861.543
107861.488
107861.4325
107861.3781
107861.3266
107861.2799
107861.2387
107861.2003
107861.1667
107861.1357
107861.0319
107860.6921
107860.9309
107864.397
107862.6353
0
0
107857.6456
107858.2789
107858.2197
107855.78
107851.9884
107848.2631
107849.2829
107851.1028
107852.6012
107853.9109
107855.0255
107855.9332
107856.6558
107857.2331
107857.6995
107858.0822
107858.4017
107858.6734
107858.9085
107859.1156
107859.3008
107859.4688
107859.6231
107859.7662
107859.8999
107860.0253
107860.1433
107860.2544
107860.359
107860.4572
107860.549
107860.6343
107860.7129
107860.7845
107860.8484
107860.9015
107860.9491
107860.9887
107861.0215
107861.049
107861.0728
107861.0943
107861.1147
107861.1345
107861.1542
107861.1742
107861.1947
107861.2161
107861.2388
107861.2631
107861.2899
107861.3192
107861.3513
107861.3862
107861.4261
107861.4705
107861.5149
107861.5576
107861.5958
107861.6245
107861.6371
107861.6251
107861.5785
107861.4872
107861.3424
107861.1403
107860.8849
107860.5914
107860.286
107860.0005
107859.7605
107859.5805
107859.4647
107859.4093
107859.4066
107859.4445
107859.5178
107859.6103
107859.7179
107859.8351
107859.9566
107860.0786
107860.1987
107860.3151
107860.4265
107860.532
107860.6311
107860.7236
107860.8093
107860.8882
107860.9603
107861.0258
107861.0848
107861.1374
107861.1839
107861.2244
107861.2589
107861.2875
107861.3105
107861.3277
107861.3393
107861.3453
107862.0532
107862.052
107862.0486
107862.043
107862.0352
107862.0252
107862.0129
107861.9983
107861.9814
107861.9622
107861.9407
107861.9169
107861.8907
107861.862
107861.8306
107861.7961
107861.7582
107861.7166
107861.671
107861.6215
107861.5688
107861.5139
107861.4588
107861.4058
107861.3579
107861.3181
107861.2897
107861.2756
107861.2752
107861.2923
107861.3435
107861.3691
107861.4755
107863.8215
107866.1362
0
-8.940645966e-08
0
0
0
0
107858.9521
107855.1053
107848.0308
107846.1713
107850.2577
107852.2021
107853.8156
107855.1441
107856.1379
107856.8847
107857.4543
107857.9005
107858.2592
107858.5552
107858.8054
107859.0218
107859.2127
107859.3842
107859.5407
107859.6853
107859.8204
107859.9475
107860.0675
107860.1811
107860.2887
107860.3902
107860.4858
107860.5752
107860.6581
107860.7336
107860.8015