/*--------------------------------*- C++ -*----------------------------------*\
| =========                 |                                                 |
| \\      /  F ield         | OpenFOAM: The Open Source CFD Toolbox           |
|  \\    /   O peration     | Version:  5.x                                   |
|   \\  /    A nd           | Web:      www.OpenFOAM.org                      |
|    \\/     M anipulation  |                                                 |
\*---------------------------------------------------------------------------*/
FoamFile
{
    version     2.0;
    format      ascii;
    class       volVectorField;
    location    "0.3";
    object      Urom;
}
// * * * * * * * * * * * * * * * * * * * * * * * * * * * * * * * * * * * * * //

dimensions      [0 1 -1 0 0 0 0];

internalField   nonuniform List<vector> 
17530
(
(0.182339 0.00250757 0)
(0.116536 0.00320164 0)
(0.478999 0.0286093 0)
(0.042668 0.00380657 0)
(0.330896 0.0320916 0)
(0.871444 0.071014 0)
(-0.0343561 0.00391186 0)
(0.172505 0.0346467 0)
(0.676487 0.0773644 0)
(1.33399 0.123846 0)
(-0.109945 0.00362958 0)
(0.0124216 0.0347653 0)
(0.474447 0.0811656 0)
(1.11585 0.131912 0)
(1.77959 0.183075 0)
(-0.184956 0.00351221 0)
(-0.144671 0.0340424 0)
(0.272981 0.0807275 0)
(0.89261 0.136551 0)
(1.5558 0.19214 0)
(2.15958 0.245117 0)
(-0.262965 0.00377843 0)
(-0.302496 0.0344921 0)
(0.0757988 0.0793056 0)
(0.668101 0.135483 0)
(1.32174 0.198576 0)
(1.94158 0.255923 0)
(2.47129 0.30702 0)
(-0.343137 0.0040282 0)
(-0.466042 0.0358432 0)
(-0.119543 0.0803727 0)
(0.450309 0.132275 0)
(1.08119 0.196701 0)
(1.70298 0.266159 0)
(2.26371 0.321047 0)
(2.72979 0.367128 0)
(-0.418657 0.00377091 0)
(-0.631306 0.035431 0)
(-0.318298 0.0829218 0)
(0.241601 0.132563 0)
(0.853005 0.189731 0)
(1.45248 0.263201 0)
(2.02708 0.33749 0)
(2.53198 0.38625 0)
(2.95197 0.425694 0)
(-0.483298 0.00317279 0)
(-0.784984 0.0316626 0)
(-0.518561 0.0813243 0)
(0.0338384 0.135926 0)
(0.643622 0.187621 0)
(1.22077 0.250182 0)
(1.77531 0.33356 0)
(2.30182 0.410318 0)
(2.75918 0.451528 0)
(3.15483 0.48541 0)
(-0.536422 0.00281092 0)
(-0.915765 0.0262353 0)
(-0.705979 0.0726221 0)
(-0.177148 0.133446 0)
(0.438292 0.191919 0)
(1.01686 0.243803 0)
(1.54605 0.312396 0)
(2.05865 0.405342 0)
(2.53738 0.482644 0)
(2.9587 0.517699 0)
(3.35599 0.550453 0)
(-0.579875 0.00270389 0)
(-1.02137 0.0214496 0)
(-0.864103 0.0598889 0)
(-0.375633 0.11882 0)
(0.227244 0.188993 0)
(0.820673 0.248583 0)
(1.35091 0.299332 0)
(1.8401 0.374459 0)
(2.31083 0.475208 0)
(2.74569 0.552987 0)
(3.14744 0.586327 0)
(3.57018 0.624487 0)
(-0.613462 0.00241112 0)
(-1.10263 0.0168935 0)
(-0.987167 0.0471899 0)
(-0.537217 0.0960456 0)
(0.0304647 0.166598 0)
(0.621488 0.244659 0)
(1.17113 0.302887 0)
(1.65964 0.352447 0)
(2.11334 0.433414 0)
(2.54171 0.540155 0)
(2.94282 0.620222 0)
(3.34558 0.659104 0)
(3.80271 0.708377 0)
(-0.635533 0.00193389 0)
(-1.1573 0.0118482 0)
(-1.07759 0.0348205 0)
(-0.655004 0.0735298 0)
(-0.124636 0.131477 0)
(0.438347 0.214258 0)
(0.995233 0.297166 0)
(1.50303 0.352482 0)
(1.95718 0.400952 0)
(2.37414 0.485799 0)
(2.76567 0.597764 0)
(3.14905 0.683647 0)
(3.56849 0.736159 0)
(4.04803 0.798659 0)
(-0.645641 0.00160913 0)
(-1.18205 0.00623167 0)
(-1.1351 0.0213728 0)
(-0.739222 0.0532958 0)
(-0.235026 0.0985897 0)
(0.290309 0.167515 0)
(0.830399 0.260647 0)
(1.35171 0.34554 0)
(1.82631 0.396932 0)
(2.24941 0.44266 0)
(2.63224 0.529278 0)
(2.99994 0.646667 0)
(3.38203 0.743119 0)
(3.81885 0.814619 0)
(4.29389 0.889215 0)
(-0.644994 0.00128065 0)
(-1.17607 0.00108253 0)
(-1.15395 0.00619748 0)
(-0.794547 0.0308776 0)
(-0.314331 0.0709558 0)
(0.177189 0.124944 0)
(0.685731 0.205558 0)
(1.19892 0.306193 0)
(1.69073 0.391576 0)
(2.14044 0.437709 0)
(2.53689 0.477628 0)
(2.89899 0.564158 0)
(3.25889 0.687112 0)
(3.64825 0.798275 0)
(4.0865 0.889497 0)
(4.52676 0.973027 0)
(-0.634161 0.000941373 0)
(-1.14151 -0.00359465 0)
(-1.12679 -0.00870566 0)
(-0.810301 0.0036875 0)
(-0.366534 0.0398395 0)
(0.0915057 0.0892179 0)
(0.563378 0.15515 0)
(1.05135 0.246386 0)
(1.53828 0.353448 0)
(2.00934 0.438623 0)
(2.43933 0.477112 0)
(2.82069 0.509001 0)
(3.18226 0.593526 0)
(3.54792 0.721212 0)
(3.94085 0.847428 0)
(4.35567 0.955325 0)
(4.73412 1.04275 0)
(-0.612164 0.000483821 0)
(-1.08039 -0.00856315 0)
(-1.05211 -0.0223539 0)
(-0.77002 -0.0256085 0)
(-0.375247 -0.000726243 0)
(0.0401752 0.0471324 0)
(0.467769 0.109841 0)
(0.921422 0.188658 0)
(1.38335 0.290088 0)
(1.8504 0.404469 0)
(2.30557 0.488487 0)
(2.71971 0.517913 0)
(3.10347 0.54218 0)
(3.48347 0.622462 0)
(3.86143 0.751469 0)
(4.24385 0.888149 0)
(4.61137 1.0067 0)
(4.9061 1.09166 0)
(-0.57807 -0.000191887 0)
(-0.994361 -0.0140648 0)
(-0.937245 -0.034957 0)
(-0.670038 -0.0527307 0)
(-0.322947 -0.0463525 0)
(0.0440317 -0.00889494 0)
(0.417412 0.05312 0)
(0.825401 0.131768 0)
(1.25223 0.222948 0)
(1.69088 0.335989 0)
(2.14446 0.458275 0)
(2.58228 0.540153 0)
(2.98584 0.56281 0)
(3.3889 0.582699 0)
(3.79769 0.655789 0)
(4.18456 0.779257 0)
(4.53918 0.918346 0)
(4.83874 1.03895 0)
(5.03914 1.11638 0)
(-0.531694 -0.000848304 0)
(-0.88612 -0.0196837 0)
(-0.796076 -0.046313 0)
(-0.527216 -0.0740205 0)
(-0.217806 -0.0862928 0)
(0.105882 -0.0686746 0)
(0.428991 -0.0195104 0)
(0.782717 0.0589129 0)
(1.16908 0.151786 0)
(1.56726 0.255493 0)
(1.99121 0.382 0)
(2.43122 0.511046 0)
(2.84741 0.590794 0)
(3.24987 0.613171 0)
(3.68103 0.633203 0)
(4.11432 0.695564 0)
(4.4979 0.805496 0)
(4.80853 0.93681 0)
(5.02382 1.04955 0)
(5.13815 1.11994 0)
(-0.47323 -0.00146814 0)
(-0.756915 -0.0249496 0)
(-0.638574 -0.0565457 0)
(-0.362426 -0.0896113 0)
(-0.084237 -0.11494 0)
(0.198107 -0.116577 0)
(0.482819 -0.0893058 0)
(0.78846 -0.0271035 0)
(1.13844 0.0652133 0)
(1.50329 0.167889 0)
(1.88461 0.284411 0)
(2.29906 0.424263 0)
(2.71802 0.557936 0)
(3.11423 0.6382 0)
(3.52749 0.66833 0)
(3.98115 0.691637 0)
(4.41913 0.740955 0)
(4.78216 0.830804 0)
(5.03349 0.943037 0)
(5.15966 1.04042 0)
(5.2147 1.11078 0)
(-0.40227 -0.00206811 0)
(-0.605648 -0.0302759 0)
(-0.463231 -0.0670516 0)
(-0.182869 -0.103394 0)
(0.0688142 -0.136202 0)
(0.301875 -0.150509 0)
(0.547533 -0.140715 0)
(0.810334 -0.102591 0)
(1.12652 -0.026568 0)
(1.47796 0.0733788 0)
(1.83501 0.181767 0)
(2.21543 0.309245 0)
(2.61868 0.459014 0)
(3.01239 0.595489 0)
(3.40015 0.681415 0)
(3.82865 0.72505 0)
(4.28323 0.752093 0)
(4.69913 0.788556 0)
(5.02133 0.854158 0)
(5.20017 0.936908 0)
(5.25212 1.01807 0)
(5.2804 1.09733 0)
(-0.31824 -0.00267778 0)
(-0.429513 -0.0359399 0)
(-0.263421 -0.0789392 0)
(0.0179197 -0.119508 0)
(0.252245 -0.157161 0)
(0.430155 -0.180897 0)
(0.622202 -0.18007 0)
(0.836317 -0.157401 0)
(1.10452 -0.10335 0)
(1.44228 -0.0157868 0)
(1.80079 0.0860631 0)
(2.16799 0.197605 0)
(2.55504 0.331959 0)
(2.94721 0.485536 0)
(3.32594 0.62311 0)
(3.71867 0.719047 0)
(4.1501 0.777111 0)
(4.57549 0.807316 0)
(4.94579 0.833455 0)
(5.20523 0.871305 0)
(5.30811 0.919706 0)
(5.31676 0.991435 0)
(5.34038 1.08444 0)
(-0.221033 -0.00348104 0)
(-0.227086 -0.0418839 0)
(-0.0358257 -0.0919911 0)
(0.245455 -0.138323 0)
(0.476332 -0.180915 0)
(0.60958 -0.215299 0)
(0.735961 -0.223525 0)
(0.891038 -0.206771 0)
(1.09176 -0.165799 0)
(1.38424 -0.0917309 0)
(1.74022 0.00398465 0)
(2.1122 0.106091 0)
(2.49666 0.219514 0)
(2.89218 0.355906 0)
(3.28503 0.506987 0)
(3.66887 0.64308 0)
(4.06939 0.748714 0)
(4.47603 0.817437 0)
(4.84706 0.851409 0)
(5.153 0.869321 0)
(5.33265 0.876518 0)
(5.37255 0.895231 0)
(5.3682 0.967677 0)
(5.39206 1.07408 0)
(-0.111997 -0.0042626 0)
(-2.70414e-05 -0.0472937 0)
(0.215349 -0.104531 0)
(0.491402 -0.156569 0)
(0.729101 -0.20418 0)
(0.84742 -0.250367 0)
(0.914048 -0.275283 0)
(1.00597 -0.267189 0)
(1.13304 -0.232791 0)
(1.34778 -0.166963 0)
(1.6665 -0.0732417 0)
(2.03218 0.0293174 0)
(2.41566 0.134138 0)
(2.81374 0.249643 0)
(3.22508 0.384654 0)
(3.63705 0.528014 0)
(4.0397 0.659109 0)
(4.43426 0.767842 0)
(4.78795 0.841007 0)
(5.08938 0.880805 0)
(5.31574 0.888991 0)
(5.41312 0.866767 0)
(5.41489 0.868314 0)
(5.41241 0.948644 0)
(5.4329 1.06687 0)
(0.00664458 -0.00480713 0)
(0.247139 -0.0517119 0)
(0.485368 -0.115486 0)
(0.74141 -0.172053 0)
(0.979177 -0.221887 0)
(1.11112 -0.27553 0)
(1.14675 -0.322194 0)
(1.18699 -0.335375 0)
(1.25279 -0.313855 0)
(1.38063 -0.257637 0)
(1.62847 -0.164888 0)
(1.96211 -0.0547119 0)
(2.32813 0.056212 0)
(2.71506 0.167617 0)
(3.12594 0.287286 0)
(3.5638 0.420079 0)
(4.00312 0.552441 0)
(4.42049 0.673964 0)
(4.78598 0.775099 0)
(5.07145 0.84681 0)
(5.29571 0.89204 0)
(5.43433 0.887637 0)
(5.46444 0.843471 0)
(5.45166 0.841863 0)
(5.45108 0.931426 0)
(5.47151 1.06289 0)
(0.131732 -0.00529876 0)
(0.510324 -0.0547336 0)
(0.775935 -0.125119 0)
(0.996359 -0.187115 0)
(1.21301 -0.236375 0)
(1.35931 -0.288255 0)
(1.3928 -0.348417 0)
(1.39901 -0.389741 0)
(1.43095 -0.394434 0)
(1.49477 -0.36086 0)
(1.65985 -0.280056 0)
(1.93928 -0.164506 0)
(2.27243 -0.0408831 0)
(2.6334 0.0811101 0)
(3.02378 0.201982 0)
(3.45384 0.328938 0)
(3.91691 0.460509 0)
(4.37244 0.582131 0)
(4.78435 0.688681 0)
(5.10019 0.771266 0)
(5.31737 0.836945 0)
(5.46357 0.88144 0)
(5.51919 0.863316 0)
(5.50716 0.809586 0)
(5.49303 0.813593 0)
(5.49285 0.910743 0)
(5.53155 1.0599 0)
(0.259457 -0.00547243 0)
(0.784429 -0.0564966 0)
(1.09125 -0.13241 0)
(1.26928 -0.203655 0)
(1.44561 -0.25406 0)
(1.58764 -0.299553 0)
(1.62832 -0.357223 0)
(1.60775 -0.416497 0)
(1.61669 -0.450032 0)
(1.65279 -0.450192 0)
(1.75464 -0.402121 0)
(1.97519 -0.299471 0)
(2.26993 -0.168812 0)
(2.59526 -0.0330589 0)
(2.95694 0.101284 0)
(3.36128 0.233232 0)
(3.8117 0.369633 0)
(4.28066 0.501928 0)
(4.72903 0.615651 0)
(5.10783 0.701615 0)
(5.3647 0.758737 0)
(5.52369 0.813347 0)
(5.59798 0.846401 0)
(5.58921 0.816592 0)
(5.56004 0.765727 0)
(5.54868 0.776672 0)
(5.55998 0.881919 0)
(5.6388 1.05251 0)
(0.386858 -0.00549258 0)
(1.06259 -0.0567994 0)
(1.42846 -0.136605 0)
(1.57262 -0.219216 0)
(1.69707 -0.27701 0)
(1.81959 -0.320081 0)
(1.86458 -0.367843 0)
(1.82033 -0.427506 0)
(1.7905 -0.477038 0)
(1.80997 -0.504249 0)
(1.8741 -0.498056 0)
(2.04384 -0.432835 0)
(2.30981 -0.315952 0)
(2.60812 -0.177191 0)
(2.93611 -0.0304376 0)
(3.31191 0.115591 0)
(3.73571 0.2593 0)
(4.19195 0.405207 0)
(4.64338 0.540295 0)
(5.05932 0.647852 0)
(5.38049 0.708743 0)
(5.58273 0.739749 0)
(5.69488 0.775317 0)
(5.70903 0.786834 0)
(5.66405 0.750994 0)
(5.6355 0.70968 0)
(5.63196 0.725793 0)
(5.67833 0.844169 0)
(5.80267 1.03354 0)
(0.511547 -0.00542973 0)
(1.33872 -0.0558879 0)
(1.77617 -0.137243 0)
(1.90777 -0.22965 0)
(1.9749 -0.300669 0)
(2.07211 -0.34874 0)
(2.11948 -0.392356 0)
(2.06449 -0.444927 0)
(1.98306 -0.496973 0)
(1.96655 -0.533561 0)
(1.99972 -0.554493 0)
(2.11703 -0.53398 0)
(2.35271 -0.45189 0)
(2.64414 -0.32919 0)
(2.95439 -0.186347 0)
(3.30589 -0.0311837 0)
(3.7023 0.124343 0)
(4.13338 0.279749 0)
(4.5745 0.434078 0)
(4.99354 0.572606 0)
(5.35536 0.670568 0)
(5.60824 0.705771 0)
(5.76655 0.713722 0)
(5.83539 0.721176 0)
(5.80696 0.707922 0)
(5.756 0.673069 0)
(5.73736 0.640523 0)
(5.75842 0.663692 0)
(5.85859 0.799582 0)
(6.01348 0.996305 0)
(0.631201 -0.00523089 0)
(1.60785 -0.0539363 0)
(2.12284 -0.134815 0)
(2.26356 -0.232227 0)
(2.27366 -0.3183 0)
(2.33968 -0.376441 0)
(2.39271 -0.42491 0)
(2.34763 -0.475977 0)
(2.22706 -0.528767 0)
(2.15455 -0.566041 0)
(2.15363 -0.592013 0)
(2.21203 -0.60106 0)
(2.38826 -0.558022 0)
(2.66498 -0.46186 0)
(2.97549 -0.337576 0)
(3.31945 -0.192055 0)
(3.70548 -0.032712 0)
(4.11255 0.129287 0)
(4.53161 0.295117 0)
(4.9443 0.456614 0)
(5.32231 0.59505 0)
(5.6164 0.675978 0)
(5.80671 0.68989 0)
(5.92298 0.677223 0)
(5.9457 0.652857 0)
(5.8999 0.62178 0)
(5.86629 0.590827 0)
(5.86775 0.563113 0)
(5.93832 0.600391 0)
(6.08904 0.747524 0)
(6.26576 0.939787 0)
(0.743784 -0.00494367 0)
(1.86576 -0.0510519 0)
(2.46224 -0.130247 0)
(2.62694 -0.228768 0)
(2.5893 -0.326422 0)
(2.60547 -0.396397 0)
(2.66365 -0.451803 0)
(2.64672 -0.509158 0)
(2.52271 -0.569924 0)
(2.39471 -0.614981 0)
(2.35133 -0.637962 0)
(2.36379 -0.654959 0)
(2.46124 -0.643065 0)
(2.68322 -0.574745 0)
(2.97955 -0.467403 0)
(3.31746 -0.339424 0)
(3.70638 -0.190958 0)
(4.11638 -0.0319978 0)
(4.51845 0.133205 0)
(4.91632 0.306791 0)
(5.29622 0.472244 0)
(5.62425 0.602188 0)
(5.84934 0.660634 0)
(5.98488 0.659045 0)
(6.0461 0.626997 0)
(6.02736 0.578532 0)
(5.99368 0.541907 0)
(5.99084 0.511559 0)
(6.03456 0.489156 0)
(6.16906 0.542891 0)
(6.35479 0.684843 0)
(6.57474 0.873682 0)
(0.84726 -0.00459937 0)
(2.10876 -0.0472174 0)
(2.79136 -0.123947 0)
(2.99025 -0.222325 0)
(2.92643 -0.326438 0)
(2.8699 -0.40954 0)
(2.91521 -0.468249 0)
(2.9276 -0.530688 0)
(2.83462 -0.60225 0)
(2.68108 -0.667746 0)
(2.59075 -0.700867 0)
(2.57106 -0.715311 0)
(2.60247 -0.719613 0)
(2.74737 -0.68057 0)
(3.00124 -0.590715 0)
(3.31186 -0.47291 0)
(3.68133 -0.334751 0)
(4.10062 -0.181963 0)
(4.51292 -0.0267244 0)
(4.90517 0.139387 0)
(5.28425 0.315695 0)
(5.63042 0.477616 0)
(5.89963 0.588675 0)
(6.05913 0.624898 0)
(6.13372 0.61121 0)
(6.12916 0.564219 0)
(6.09081 0.510236 0)
(6.09006 0.477472 0)
(6.1321 0.444839 0)
(6.2473 0.43152 0)
(6.43978 0.488279 0)
(6.66177 0.614997 0)
(6.95525 0.810223 0)
(0.939277 -0.00415548 0)
(2.33243 -0.0424808 0)
(3.10754 -0.115622 0)
(3.35 -0.213954 0)
(3.2855 -0.321282 0)
(3.1556 -0.418534 0)
(3.15203 -0.48183 0)
(3.1806 -0.540841 0)
(3.12716 -0.615831 0)
(2.98314 -0.701091 0)
(2.85564 -0.762671 0)
(2.81058 -0.786475 0)
(2.80426 -0.796013 0)
(2.87184 -0.780752 0)
(3.06807 -0.715554 0)
(3.34786 -0.611074 0)
(3.67431 -0.48071 0)
(4.06279 -0.325942 0)
(4.48121 -0.16742 0)
(4.88184 -0.0149619 0)
(5.27095 0.150536 0)
(5.6367 0.321581 0)
(5.94695 0.468067 0)
(6.14889 0.551395 0)
(6.23696 0.568944 0)
(6.23769 0.545678 0)
(6.1811 0.495699 0)
(6.15099 0.456299 0)
(6.19138 0.43329 0)
(6.30487 0.403552 0)
(6.50718 0.393538 0)
(6.74722 0.431078 0)
(7.02934 0.549752 0)
(7.39184 0.748958 0)
(1.01771 -0.0035959 0)
(2.53103 -0.0367914 0)
(3.40519 -0.10473 0)
(3.7035 -0.202563 0)
(3.6566 -0.312518 0)
(3.48318 -0.421986 0)
(3.39714 -0.499584 0)
(3.41859 -0.551877 0)
(3.39484 -0.61945 0)
(3.28115 -0.709494 0)
(3.13181 -0.800122 0)
(3.05479 -0.852143 0)
(3.03451 -0.872072 0)
(3.0493 -0.873617 0)
(3.17665 -0.834573 0)
(3.4228 -0.750725 0)
(3.72239 -0.637233 0)
(4.06105 -0.490906 0)
(4.44623 -0.317381 0)
(4.83763 -0.151551 0)
(5.2275 0.00464617 0)
(5.61965 0.167338 0)
(5.97459 0.32312 0)
(6.23966 0.439817 0)
(6.36224 0.48976 0)
(6.36623 0.492743 0)
(6.2986 0.465515 0)
(6.22422 0.429267 0)
(6.22008 0.417534 0)
(6.3149 0.413565 0)
(6.52711 0.394876 0)
(6.80965 0.367109 0)
(7.103 0.375065 0)
(7.46023 0.497129 0)
(7.84461 0.673754 0)
(1.0804 -0.0029484 0)
(2.699 -0.0300908 0)
(3.67531 -0.0909525 0)
(4.04456 -0.186326 0)
(4.02772 -0.29925 0)
(3.8482 -0.416947 0)
(3.67974 -0.516972 0)
(3.65633 -0.573496 0)
(3.65102 -0.628167 0)
(3.57193 -0.708322 0)
(3.42409 -0.81083 0)
(3.30534 -0.895741 0)
(3.26395 -0.938312 0)
(3.25361 -0.955578 0)
(3.31882 -0.941272 0)
(3.52031 -0.88025 0)
(3.8037 -0.787488 0)
(4.11121 -0.666818 0)
(4.45289 -0.502253 0)
(4.81566 -0.313192 0)
(5.17488 -0.136435 0)
(5.56155 0.0313739 0)
(5.95528 0.188175 0)
(6.29199 0.317825 0)
(6.49076 0.390831 0)
(6.52141 0.40618 0)
(6.44571 0.398239 0)
(6.33902 0.37715 0)
(6.27773 0.368586 0)
(6.31673 0.392069 0)
(6.49531 0.420806 0)
(6.80962 0.409823 0)
(7.15647 0.343893 0)
(7.51756 0.330301 0)
(7.9277 0.448129 0)
(8.27684 0.566237 0)
(1.12555 -0.00215814 0)
(2.83129 -0.0225664 0)
(3.90883 -0.0744447 0)
(4.36284 -0.1645 0)
(4.38931 -0.27905 0)
(4.22668 -0.40251 0)
(4.01293 -0.522834 0)
(3.90982 -0.602179 0)
(3.90662 -0.649938 0)
(3.85556 -0.715157 0)
(3.73299 -0.809774 0)
(3.58439 -0.915936 0)
(3.5018 -0.98877 0)
(3.47039 -1.02492 0)
(3.48444 -1.03301 0)
(3.6283 -0.995594 0)
(3.89342 -0.919617 0)
(4.19036 -0.824734 0)
(4.49581 -0.69495 0)
(4.82981 -0.513549 0)
(5.16234 -0.313883 0)
(5.50517 -0.120198 0)
(5.89297 0.0620927 0)
(6.27771 0.209408 0)
(6.56959 0.301153 0)
(6.6759 0.321482 0)
(6.62072 0.305378 0)
(6.49591 0.291003 0)
(6.38368 0.286102 0)
(6.35952 0.314257 0)
(6.47629 0.380534 0)
(6.76369 0.447432 0)
(7.15565 0.427527 0)
(7.5564 0.322522 0)
(7.98043 0.296499 0)
(8.39281 0.382231 0)
(8.67356 0.420525 0)
(1.15254 -0.00131605 0)
(2.92444 -0.0144837 0)
(4.09761 -0.0558719 0)
(4.64772 -0.137236 0)
(4.73259 -0.250728 0)
(4.59678 -0.378481 0)
(4.38054 -0.510996 0)
(4.19782 -0.6222 0)
(4.1614 -0.68192 0)
(4.13666 -0.735925 0)
(4.04567 -0.814945 0)
(3.89565 -0.92172 0)
(3.76869 -1.02112 0)
(3.70842 -1.08303 0)
(3.6843 -1.11327 0)
(3.7549 -1.10085 0)
(3.97671 -1.03825 0)
(4.27058 -0.955 0)
(4.56041 -0.858786 0)
(4.86164 -0.716607 0)
(5.17805 -0.524005 0)
(5.48882 -0.314598 0)
(5.8377 -0.0995608 0)
(6.224 0.0927817 0)
(6.57496 0.223851 0)
(6.77913 0.266819 0)
(6.78639 0.235769 0)
(6.67878 0.194391 0)
(6.54115 0.177099 0)
(6.45399 0.196772 0)
(6.5028 0.268232 0)
(6.73583 0.382532 0)
(7.12617 0.475067 0)
(7.56569 0.431795 0)
(8.01082 0.30196 0)
(8.4637 0.25886 0)
(8.82875 0.280953 0)
(9.0384 0.249505 0)
(1.16214 -0.000453849 0)
(2.97821 -0.00651987 0)
(4.2363 -0.0363325 0)
(4.88937 -0.105772 0)
(5.04929 -0.214229 0)
(4.94851 -0.344724 0)
(4.75189 -0.483244 0)
(4.52772 -0.619397 0)
(4.41889 -0.710705 0)
(4.41063 -0.764932 0)
(4.35201 -0.833284 0)
(4.22529 -0.927543 0)
(4.06796 -1.03796 0)
(3.96965 -1.12554 0)
(3.92369 -1.18155 0)
(3.93146 -1.20045 0)
(4.07552 -1.1584 0)
(4.34014 -1.07419 0)
(4.62471 -0.987127 0)
(4.90162 -0.884587 0)
(5.19835 -0.729302 0)
(5.49487 -0.531042 0)
(5.80712 -0.307872 0)
(6.17491 -0.0738732 0)
(6.54599 0.118059 0)
(6.82067 0.219978 0)
(6.90694 0.210169 0)
(6.84358 0.140148 0)
(6.72195 0.0789591 0)
(6.60323 0.0620438 0)
(6.58388 0.113773 0)
(6.74892 0.233125 0)
(7.10614 0.390424 0)
(7.56655 0.486522 0)
(8.03497 0.418249 0)
(8.50668 0.273627 0)
(8.93942 0.193325 0)
(9.22299 0.139738 0)
(9.40396 0.075818 0)
(1.15645 0.000316609 0)
(2.99531 0.000660617 0)
(4.32441 -0.0172185 0)
(5.07975 -0.0721731 0)
(5.33093 -0.170984 0)
(5.27893 -0.300954 0)
(5.10608 -0.443756 0)
(4.8825 -0.591921 0)
(4.69865 -0.719394 0)
(4.6659 -0.792536 0)
(4.64602 -0.8569 0)
(4.55177 -0.941784 0)
(4.39226 -1.04858 0)
(4.2515 -1.15225 0)
(4.18315 -1.23043 0)
(4.15998 -1.28298 0)
(4.22553 -1.28118 0)
(4.42609 -1.20795 0)
(4.68766 -1.10824 0)
(4.94308 -1.01477 0)
(5.21131 -0.898321 0)
(5.50049 -0.7329 0)
(5.79203 -0.529275 0)
(6.13109 -0.28867 0)
(6.51089 -0.0464794 0)
(6.83448 0.128833 0)
(6.99265 0.186145 0)
(6.97387 0.131955 0)
(6.88134 0.0390897 0)
(6.77357 -0.0379867 0)
(6.71686 -0.0479306 0)
(6.81661 0.0411542 0)
(7.11589 0.207327 0)
(7.56669 0.391876 0)
(8.06398 0.47592 0)
(8.55229 0.386005 0)
(9.02095 0.218576 0)
(9.37964 0.0814249 0)
(9.59924 -0.0268194 0)
(9.81721 -0.0832473 0)
(1.13806 0.000946642 0)
(2.98077 0.00670969 0)
(4.36531 3.223e-05 0)
(5.2148 -0.0393465 0)
(5.56889 -0.123496 0)
(5.5837 -0.24821 0)
(5.44009 -0.394094 0)
(5.23428 -0.547265 0)
(5.01203 -0.698902 0)
(4.91096 -0.807009 0)
(4.91684 -0.876274 0)
(4.86167 -0.958935 0)
(4.72352 -1.05992 0)
(4.55081 -1.16985 0)
(4.44833 -1.26137 0)
(4.41179 -1.33587 0)
(4.42616 -1.38108 0)
(4.55121 -1.35118 0)
(4.77129 -1.25291 0)
(5.00124 -1.14284 0)
(5.22829 -1.03583 0)
(5.49065 -0.900223 0)
(5.77567 -0.727116 0)
(6.09104 -0.512992 0)
(6.46498 -0.258386 0)
(6.82701 -0.0250443 0)
(7.06095 0.112911 0)
(7.09877 0.118247 0)
(7.01997 0.0368734 0)
(6.92632 -0.0677103 0)
(6.86777 -0.152517 0)
(6.9292 -0.146016 0)
(7.1738 -0.0192366 0)
(7.58441 0.183607 0)
(8.08901 0.378195 0)
(8.60675 0.442308 0)
(9.10258 0.326206 0)
(9.51412 0.11818 0)
(9.78947 -0.070654 0)
(10.007 -0.197524 0)
(10.2914 -0.221708 0)
(1.10932 0.00149498 0)
(2.94053 0.0116145 0)
(4.36456 0.0146054 0)
(5.29531 -0.00974366 0)
(5.7555 -0.0753803 0)
(5.85518 -0.188978 0)
(5.75598 -0.334348 0)
(5.56958 -0.492112 0)
(5.3452 -0.653852 0)
(5.17286 -0.796418 0)
(5.15661 -0.886558 0)
(5.15058 -0.968379 0)
(5.04412 -1.07054 0)
(4.86381 -1.18285 0)
(4.71455 -1.28367 0)
(4.65987 -1.36483 0)
(4.6543 -1.43852 0)
(4.71242 -1.46758 0)
(4.87605 -1.40898 0)
(5.08524 -1.29562 0)
(5.27956 -1.17741 0)
(5.48917 -1.04962 0)
(5.74804 -0.89353 0)
(6.04717 -0.709779 0)
(6.40714 -0.480896 0)
(6.79417 -0.225387 0)
(7.09622 -0.0204976 0)
(7.21809 0.0621031 0)
(7.17299 0.021747 0)
(7.07557 -0.072794 0)
(7.00944 -0.180511 0)
(7.05299 -0.257507 0)
(7.26716 -0.227358 0)
(7.63878 -0.0711791 0)
(8.12325 0.153526 0)
(8.66046 0.343102 0)
(9.19106 0.379263 0)
(9.64544 0.225305 0)
(9.96843 -0.02623 0)
(10.2102 -0.240726 0)
(10.4682 -0.358231 0)
(10.8072 -0.340976 0)
(1.07221 0.00197243 0)
(2.87987 0.0156611 0)
(4.32912 0.0262134 0)
(5.32769 0.0154371 0)
(5.8849 -0.0307504 0)
(6.08412 -0.126502 0)
(6.04873 -0.265521 0)
(5.89018 -0.427285 0)
(5.67722 -0.594639 0)
(5.46568 -0.758162 0)
(5.3828 -0.881163 0)
(5.40675 -0.967265 0)
(5.34779 -1.07133 0)
(5.18286 -1.19033 0)
(4.99147 -1.30259 0)
(4.89461 -1.38669 0)
(4.87873 -1.46242 0)
(4.89802 -1.53126 0)
(4.99536 -1.53609 0)
(5.17449 -1.45523 0)
(5.35973 -1.33661 0)
(5.52965 -1.20909 0)
(5.73681 -1.05704 0)
(6.00428 -0.880702 0)
(6.33885 -0.679445 0)
(6.73281 -0.438533 0)
(7.09073 -0.199588 0)
(7.30241 -0.042815 0)
(7.32796 -0.0213823 0)
(7.24809 -0.0952211 0)
(7.16667 -0.196613 0)
(7.17565 -0.294034 0)
(7.36159 -0.345461 0)
(7.71692 -0.29292 0)
(8.18202 -0.120794 0)
(8.72 0.108585 0)
(9.28106 0.277655 0)
(9.78083 0.277601 0)
(10.1466 0.0810658 0)
(10.4114 -0.196487 0)
(10.6694 -0.409202 0)
(10.9703 -0.504137 0)
(11.3379 -0.444473 0)
(1.02842 0.00236819 0)
(2.80333 0.01883 0)
(4.26618 0.0352965 0)
(5.32077 0.0360542 0)
(5.95786 0.00699975 0)
(6.26042 -0.0655707 0)
(6.30726 -0.190414 0)
(6.19565 -0.35117 0)
(5.99913 -0.5257 0)
(5.77931 -0.699726 0)
(5.62748 -0.85313 0)
(5.62713 -0.957762 0)
(5.6269 -1.05724 0)
(5.49599 -1.185 0)
(5.29 -1.3138 0)
(5.13207 -1.4123 0)
(5.08648 -1.47999 0)
(5.0867 -1.55198 0)
(5.12575 -1.60613 0)
(5.25588 -1.58376 0)
(5.43634 -1.49157 0)
(5.59733 -1.37426 0)
(5.76233 -1.23394 0)
(5.98728 -1.05857 0)
(6.28254 -0.861589 0)
(6.65208 -0.638255 0)
(7.04004 -0.394904 0)
(7.33307 -0.18912 0)
(7.45347 -0.0949869 0)
(7.42484 -0.129101 0)
(7.35106 -0.228532 0)
(7.32962 -0.32961 0)
(7.45937 -0.398156 0)
(7.78535 -0.414319 0)
(8.24926 -0.347064 0)
(8.79216 -0.173751 0)
(9.37514 0.0389247 0)
(9.91644 0.175417 0)
(10.3311 0.134721 0)
(10.6185 -0.0949463 0)
(10.8737 -0.371836 0)
(11.1636 -0.566633 0)
(11.4869 -0.635676 0)
(11.8631 -0.535196 0)
(0.979784 0.00270998 0)
(2.71511 0.0211603 0)
(4.18232 0.0422035 0)
(5.28162 0.0524711 0)
(5.98426 0.0372397 0)
(6.37724 -0.0120766 0)
(6.51914 -0.114024 0)
(6.47503 -0.264703 0)
(6.30963 -0.444263 0)
(6.0955 -0.628123 0)
(5.90447 -0.801908 0)
(5.8382 -0.93625 0)
(5.8659 -1.03551 0)
(5.7941 -1.16019 0)
(5.60125 -1.30712 0)
(5.39573 -1.43376 0)
(5.29275 -1.51036 0)
(5.26904 -1.56599 0)
(5.26561 -1.62921 0)
(5.32889 -1.65714 0)
(5.48745 -1.61107 0)
(5.65951 -1.51968 0)
(5.80708 -1.40431 0)
(5.99428 -1.24744 0)
(6.25689 -1.05269 0)
(6.5862 -0.834461 0)
(6.96119 -0.591823 0)
(7.3035 -0.358072 0)
(7.52053 -0.200137 0)
(7.57783 -0.172747 0)
(7.54251 -0.254891 0)
(7.51619 -0.374445 0)
(7.59622 -0.461019 0)
(7.85815 -0.484977 0)
(8.29636 -0.466096 0)
(8.85412 -0.392697 0)
(9.47201 -0.238549 0)
(10.0531 -0.0625845 0)
(10.5154 0.0354308 0)
(10.8419 -0.0436858 0)
(11.0906 -0.285298 0)
(11.3629 -0.538785 0)
(11.6701 -0.711966 0)
(11.9988 -0.752902 0)
(12.3691 -0.61714 0)
(0.928564 0.00290489 0)
(2.61952 0.0226406 0)
(4.08333 0.0470366 0)
(5.21586 0.0648885 0)
(5.97679 0.0616084 0)
(6.43798 0.0304835 0)
(6.6749 -0.0435105 0)
(6.71223 -0.173585 0)
(6.60111 -0.347979 0)
(6.40295 -0.542357 0)
(6.20099 -0.731281 0)
(6.0728 -0.895366 0)
(6.07 -1.01189 0)
(6.05965 -1.12282 0)
(5.90816 -1.27517 0)
(5.68803 -1.43242 0)
(5.52085 -1.54426 0)
(5.4549 -1.59985 0)
(5.41891 -1.64575 0)
(5.41177 -1.68873 0)
(5.5114 -1.68187 0)
(5.68803 -1.62189 0)
(5.84675 -1.53924 0)
(6.00807 -1.42009 0)
(6.24324 -1.24605 0)
(6.54645 -1.0366 0)
(6.89153 -0.798841 0)
(7.23909 -0.546446 0)
(7.52011 -0.335417 0)
(7.67464 -0.235232 0)
(7.71418 -0.270909 0)
(7.71712 -0.396123 0)
(7.77342 -0.525873 0)
(7.96979 -0.580416 0)
(8.34795 -0.55308 0)
(8.88718 -0.503907 0)
(9.54169 -0.43686 0)
(10.1863 -0.325719 0)
(10.698 -0.19881 0)
(11.0707 -0.139319 0)
(11.3363 -0.246098 0)
(11.5775 -0.473875 0)
(11.8634 -0.694443 0)
(12.1703 -0.845925 0)
(12.4951 -0.857219 0)
(12.8464 -0.694692 0)
(0.877067 0.00289713 0)
(2.52118 0.0231685 0)
(3.97516 0.0496882 0)
(5.12918 0.0734265 0)
(5.94326 0.0812384 0)
(6.45662 0.0630795 0)
(6.77202 0.014684 0)
(6.89639 -0.0865794 0)
(6.85615 -0.242372 0)
(6.69435 -0.438027 0)
(6.49537 -0.641862 0)
(6.3361 -0.83014 0)
(6.27386 -0.978554 0)
(6.27872 -1.08805 0)
(6.19226 -1.22311 0)
(5.98809 -1.39725 0)
(5.78019 -1.55327 0)
(5.65751 -1.64395 0)
(5.59007 -1.685 0)
(5.52759 -1.71757 0)
(5.5387 -1.72547 0)
(5.67882 -1.68331 0)
(5.85534 -1.62153 0)
(6.0141 -1.54611 0)
(6.2249 -1.41561 0)
(6.51175 -1.22911 0)
(6.83594 -1.0082 0)
(7.1725 -0.756868 0)
(7.48156 -0.508736 0)
(7.70799 -0.334735 0)
(7.83437 -0.293892 0)
(7.90258 -0.386938 0)
(7.9773 -0.549285 0)
(8.13076 -0.675468 0)
(8.43575 -0.68505 0)
(8.92457 -0.606164 0)
(9.57669 -0.535365 0)
(10.2837 -0.494829 0)
(10.8735 -0.444971 0)
(11.2963 -0.367782 0)
(11.5996 -0.341585 0)
(11.8297 -0.457489 0)
(12.073 -0.652932 0)
(12.3589 -0.841042 0)
(12.6559 -0.96927 0)
(12.9679 -0.952337 0)
(13.2935 -0.770192 0)
(0.827468 0.00273359 0)
(2.42401 0.0226747 0)
(3.86423 0.0502121 0)
(5.02793 0.0779645 0)
(5.8853 0.0958535 0)
(6.44833 0.0891355 0)
(6.81772 0.0586585 0)
(7.02562 -0.0117664 0)
(7.06045 -0.139122 0)
(6.95653 -0.319073 0)
(6.77373 -0.53053 0)
(6.60633 -0.738586 0)
(6.50102 -0.920635 0)
(6.47159 -1.05501 0)
(6.43264 -1.17146 0)
(6.27349 -1.33354 0)
(6.05501 -1.51877 0)
(5.88104 -1.66307 0)
(5.77766 -1.73562 0)
(5.68106 -1.7675 0)
(5.60858 -1.77627 0)
(5.6641 -1.73761 0)
(5.82918 -1.66974 0)
(5.99771 -1.61282 0)
(6.19211 -1.53366 0)
(6.46686 -1.39024 0)
(6.78202 -1.19778 0)
(7.10605 -0.968139 0)
(7.42774 -0.713601 0)
(7.70422 -0.487513 0)
(7.90214 -0.360743 0)
(8.044 -0.375649 0)
(8.17281 -0.520441 0)
(8.33163 -0.710709 0)
(8.57979 -0.821235 0)
(8.99516 -0.777687 0)
(9.61276 -0.650784 0)
(10.3435 -0.575669 0)
(11.0126 -0.583189 0)
(11.5099 -0.597829 0)
(11.8608 -0.561553 0)
(12.1129 -0.560337 0)
(12.3224 -0.665803 0)
(12.566 -0.822308 0)
(12.8412 -0.980392 0)
(13.1212 -1.08458 0)
(13.4143 -1.0417 0)
(13.7141 -0.844152 0)
(0.781496 0.00244707 0)
(2.33086 0.0214124 0)
(3.75589 0.0488808 0)
(4.91999 0.0785807 0)
(5.80499 0.104436 0)
(6.41934 0.110402 0)
(6.82693 0.0917292 0)
(7.10229 0.0468746 0)
(7.21308 -0.0483826 0)
(7.17457 -0.19962 0)
(7.02802 -0.400603 0)
(6.86151 -0.620577 0)
(6.74032 -0.828754 0)
(6.67104 -1.00246 0)
(6.63053 -1.13025 0)
(6.52586 -1.2643 0)
(6.32213 -1.44721 0)
(6.11648 -1.63128 0)
(5.97191 -1.75939 0)
(5.85648 -1.82238 0)
(5.7333 -1.84439 0)
(5.68789 -1.81522 0)
(5.79414 -1.73023 0)
(5.96232 -1.65072 0)
(6.14412 -1.59318 0)
(6.40214 -1.49893 0)
(6.71774 -1.3485 0)
(7.03767 -1.15416 0)
(7.36214 -0.92049 0)
(7.67523 -0.678402 0)
(7.93492 -0.490291 0)
(8.14467 -0.413706 0)
(8.33495 -0.481409 0)
(8.53393 -0.670863 0)
(8.77414 -0.879669 0)
(9.12301 -0.963365 0)
(9.67463 -0.859518 0)
(10.3958 -0.69613 0)
(11.1146 -0.641838 0)
(11.6902 -0.707943 0)
(12.1024 -0.773932 0)
(12.3993 -0.769789 0)
(12.6126 -0.783519 0)
(12.8117 -0.865823 0)
(13.0492 -0.983936 0)
(13.3049 -1.11462 0)
(13.563 -1.19397 0)
(13.8359 -1.12721 0)
(14.1115 -0.915982 0)
(0.740046 0.00211888 0)
(2.2434 0.0196091 0)
(3.65337 0.0463378 0)
(4.81358 0.0759066 0)
(5.70934 0.106604 0)
(6.36812 0.125526 0)
(6.81402 0.118275 0)
(7.13305 0.0903558 0)
(7.31773 0.0255792 0)
(7.34375 -0.0933172 0)
(7.24942 -0.266648 0)
(7.0947 -0.481977 0)
(6.96755 -0.704434 0)
(6.88106 -0.911003 0)
(6.81434 -1.07842 0)
(6.73456 -1.20854 0)
(6.56904 -1.36392 0)
(6.34899 -1.55575 0)
(6.16455 -1.72869 0)
(6.0285 -1.84377 0)
(5.88964 -1.90411 0)
(5.77139 -1.9085 0)
(5.78533 -1.8319 0)
(5.92553 -1.71424 0)
(6.09577 -1.63025 0)
(6.32531 -1.55751 0)
(6.63431 -1.44737 0)
(6.95912 -1.29616 0)
(7.28799 -1.10107 0)
(7.62632 -0.87373 0)
(7.93738 -0.661496 0)
(8.21 -0.518578 0)
(8.46527 -0.492108 0)
(8.71478 -0.610292 0)
(8.98098 -0.837161 0)
(9.30466 -1.05471 0)
(9.78392 -1.09531 0)
(10.4585 -0.929114 0)
(11.1972 -0.754055 0)
(11.8364 -0.741394 0)
(12.3115 -0.860297 0)
(12.6584 -0.960884 0)
(12.9126 -0.983091 0)
(13.1016 -1.00243 0)
(13.2932 -1.05643 0)
(13.5157 -1.14009 0)
(13.7458 -1.2454 0)
(13.9818 -1.29841 0)
(14.2346 -1.20932 0)
(14.4882 -0.985435 0)
(0.703478 0.00174894 0)
(2.16213 0.0176141 0)
(3.55744 0.0432349 0)
(4.71462 0.071365 0)
(5.60856 0.103018 0)
(6.29488 0.132194 0)
(6.78452 0.139279 0)
(7.1318 0.122982 0)
(7.37622 0.0825742 0)
(7.46802 -0.00510495 0)
(7.42934 -0.14495 0)
(7.30551 -0.337016 0)
(7.17379 -0.558514 0)
(7.08251 -0.780815 0)
(7.00184 -0.987053 0)
(6.91243 -1.15168 0)
(6.78436 -1.29177 0)
(6.57362 -1.46455 0)
(6.35391 -1.65225 0)
(6.18418 -1.80941 0)
(6.04015 -1.91837 0)
(5.89498 -1.97653 0)
(5.82452 -1.95195 0)
(5.90495 -1.83157 0)
(6.06085 -1.69901 0)
(6.25859 -1.60359 0)
(6.54269 -1.50688 0)
(6.86721 -1.38824 0)
(7.20132 -1.23668 0)
(7.55956 -1.04424 0)
(7.91518 -0.838824 0)
(8.24089 -0.666462 0)
(8.55678 -0.568315 0)
(8.86675 -0.59286 0)
(9.17405 -0.757747 0)
(9.50804 -1.01671 0)
(9.93981 -1.22552 0)
(10.5464 -1.20215 0)
(11.2686 -0.988917 0)
(11.9534 -0.831598 0)
(12.4927 -0.868746 0)
(12.8831 -1.02685 0)
(13.1806 -1.14935 0)
(13.4048 -1.19327 0)
(13.5794 -1.21198 0)
(13.76 -1.23811 0)
(13.9598 -1.29229 0)
(14.1629 -1.37229 0)
(14.3782 -1.39804 0)
(14.6114 -1.28786 0)
(14.8454 -1.05196 0)
(0.671934 0.00139204 0)
(2.08725 0.0154962 0)
(3.46679 0.0399417 0)
(4.62504 0.0664345 0)
(5.51269 0.0958881 0)
(6.20638 0.129947 0)
(6.73654 0.152128 0)
(7.113 0.14826 0)
(7.39478 0.124516 0)
(7.55228 0.0655057 0)
(7.56607 -0.0431731 0)
(7.4867 -0.201643 0)
(7.36289 -0.406059 0)
(7.26381 -0.627987 0)
(7.18476 -0.851466 0)
(7.08344 -1.05946 0)
(6.96287 -1.22433 0)
(6.78526 -1.3795 0)
(6.5457 -1.56004 0)
(6.33221 -1.7334 0)
(6.16651 -1.87593 0)