/*--------------------------------*- C++ -*----------------------------------*\
| =========                 |                                                 |
| \\      /  F ield         | OpenFOAM: The Open Source CFD Toolbox           |
|  \\    /   O peration     | Version:  2412                                  |
|   \\  /    A nd           | Website:  www.openfoam.com                      |
|    \\/     M anipulation  |                                                 |
\*---------------------------------------------------------------------------*/
FoamFile
{
    version     2.0;
    format      ascii;
    arch        "LSB;label=32;scalar=64";
    class       surfaceScalarField;
    location    "0.05";
    object      phi;
}
// * * * * * * * * * * * * * * * * * * * * * * * * * * * * * * * * * * * * * //

dimensions      [1 0 -1 0 0 0 0];

oriented        oriented;

internalField   nonuniform List<scalar> 
23538
(
-8.844140999e-12
-1.118700817e-10
6.642931548e-11
-1.954502687e-10
1.585713788e-10
-2.112348839e-10
2.407717274e-10
-1.997360237e-10
3.040229455e-10
-1.786808173e-10
3.465637587e-10
-1.553237323e-10
3.686975633e-10
-1.317530577e-10
3.705816682e-10
-1.078485583e-10
3.517837183e-10
-8.30378266e-11
3.115410292e-10
-5.701638475e-11
2.491657262e-10
-2.989560003e-11
1.643661139e-10
-2.113743339e-12
5.744798197e-11
2.568053712e-11
-7.05852857e-11
5.27369749e-11
-2.180201122e-10
7.829004596e-11
-3.824722057e-10
1.016116973e-10
-5.609533115e-10
1.220446667e-10
-7.499730907e-10
1.390376003e-10
-9.456775284e-10
1.521818045e-10
-1.144033808e-09
1.612581327e-10
-1.341040094e-09
1.662662277e-10
-1.532951743e-09
1.674352882e-10
-1.716509981e-09
1.652246625e-10
-1.889146916e-09
1.602995312e-10
-2.049135524e-09
1.534760928e-10
-2.195653919e-09
1.456298087e-10
-2.328755878e-09
1.376060684e-10
-2.449225744e-09
1.301058404e-10
-2.558330248e-09
1.23579662e-10
-2.657480524e-09
1.181463084e-10
-2.747908108e-09
1.136062422e-10
-2.830346712e-09
1.094463945e-10
-2.904711355e-09
1.048503711e-10
-2.969894937e-09
9.882194686e-11
-3.02394641e-09
9.0452259e-11
-3.064070476e-09
7.897452755e-11
-3.086956021e-09
6.385206578e-11
-3.089099013e-09
4.487007464e-11
-3.067237921e-09
2.222696951e-11
-3.018730259e-09
-3.525848e-12
-2.941855288e-09
-3.155823456e-11
-2.836052915e-09
-6.082000764e-11
-2.702027672e-09
-9.016409057e-11
-2.541695166e-09
-1.184923569e-10
-2.357983833e-09
-1.44887827e-10
-2.154565851e-09
-1.686732595e-10
-1.935569604e-09
-1.894176326e-10
-1.70531309e-09
-2.069138046e-10
-1.468077008e-09
-2.211335162e-10
-1.227942625e-09
-2.321635103e-10
-9.886748711e-10
-2.401678426e-10
-7.536813171e-10
-2.45323389e-10
-5.260149952e-10
-2.477791586e-10
-3.083698934e-10
-2.476846344e-10
-1.030927559e-10
-2.451696806e-10
8.779487755e-11
-2.403609788e-10
2.625874548e-10
-2.333857942e-10
4.198773461e-10
-2.243840995e-10
5.585331629e-10
-2.135017809e-10
6.776667136e-10
-2.008852436e-10
7.765869692e-10
-1.866696117e-10
8.547425511e-10
-1.709680685e-10
9.116538343e-10
-1.538541086e-10
9.468566452e-10
-1.353682811e-10
9.598713183e-10
-1.155289991e-10
9.500939535e-10
-9.430260514e-11
9.168511625e-10
-7.165184877e-11
8.593775319e-10
-4.753199928e-11
7.768472941e-10
-2.19186833e-11
6.684373657e-10
5.175359433e-12
5.334036434e-10
3.367697382e-11
3.711867108e-10
6.343762122e-11
1.815191436e-10
9.421652678e-11
-3.545311058e-11
1.256650043e-10
-2.790609525e-10
1.573229955e-10
-5.481201424e-10
1.887261861e-10
-8.409721541e-10
2.194311775e-10
-1.155653712e-09
2.491230676e-10
-1.489622249e-09
2.771708078e-10
-1.839310308e-09
3.02447171e-10
-2.200127454e-09
3.237766361e-10
-2.566610767e-09
3.400881088e-10
-2.932516329e-09
3.503670514e-10
-3.290935901e-09
3.536910772e-10
-3.634429481e-09
3.492621708e-10
-3.955175234e-09
3.364388735e-10
-4.245157342e-09
3.147841125e-10
-4.49638853e-09
2.841217127e-10
-4.701183819e-09
2.445846433e-10
-4.852472031e-09
1.966590202e-10
-4.944116202e-09
1.412147269e-10
-4.971356342e-09
7.951694371e-11
-4.930993072e-09
1.32331024e-11
-4.821843153e-09
-5.562062427e-11
-4.645063319e-09
-1.246554214e-10
-4.404550184e-09
-1.910602883e-10
-4.106507024e-09
-2.524379564e-10
-3.75839844e-09
-3.074335568e-10
-3.36863524e-09
-3.549970718e-10
-2.94643335e-09
-3.942148143e-10
-2.501468354e-09
-4.245148681e-10
-2.043522184e-09
-4.456748238e-10
-1.582143094e-09
-4.578103475e-10
-1.126324938e-09
-4.613553144e-10
-6.842266895e-10
-4.570203226e-10
-2.629503232e-10
-4.457391005e-10
1.316145323e-10
-4.28597602e-10
4.94865569e-10
-4.067630311e-10
8.234939546e-10
-3.814128084e-10
1.11542366e-09
-3.536720562e-10
1.369700019e-09
-3.245664051e-10
1.586343099e-09
-2.949904049e-10
1.766188515e-09
-2.656919497e-10
1.910718628e-09
-2.372729511e-10
2.021898471e-09
-2.101853624e-10
2.101984993e-09
-1.847093934e-10
2.153366033e-09
-1.609806288e-10
2.178510454e-09
-1.391000091e-10
2.179911985e-09
-1.19121336e-10
2.160016619e-09
-1.010399038e-10
2.121173222e-09
-8.480460719e-11
2.065595704e-09
-7.033189395e-11
1.995341253e-09
-5.751740153e-11
1.91229774e-09
-4.624665305e-11
1.818194822e-09
-3.640799478e-11
1.714619015e-09
-2.790689527e-11
1.603044518e-09
-2.067291965e-11
1.484868999e-09
-1.466543752e-11
1.36144405e-09
-9.871312802e-12
1.234092668e-09
-6.289831154e-12
1.104099845e-09
-3.906073276e-12
9.726647734e-10
-2.65335941e-12
8.40818767e-10
-2.381716631e-12
7.09356095e-10
-2.867186764e-12
5.788646843e-10
-3.916809277e-12
4.500318311e-10
-5.631162963e-12
3.244195052e-10
-8.879651907e-12
2.055827907e-10
-1.564786027e-11
9.993025029e-11
-2.88030978e-11
-3.453191583e-11
-1.516191904e-12
-2.307980117e-10
1.024971648e-10
-4.194387693e-10
2.249690308e-10
-4.525522219e-10
3.215106174e-10
-4.135176172e-10
3.743699746e-10
-3.4667736e-10
3.784377083e-10
-2.719134648e-10
3.327974547e-10
-1.955154071e-10
2.369664007e-10
-1.178090924e-10
8.992970676e-11
-3.772138931e-11
-1.094718616e-10
4.516439899e-11
-3.617734306e-10
1.300783318e-10
-6.662045281e-10
2.152299785e-10
-1.020253968e-09
2.981872397e-10
-1.419507622e-09
3.762403079e-10
-1.857634882e-09
4.466597274e-10
-2.326507733e-09
5.068675617e-10
-2.816429249e-09
5.545931195e-10
-3.316462036e-09
5.880024765e-10
-3.81485178e-09
6.058346468e-10
-4.299529763e-09
6.075300078e-10
-4.758691237e-09
5.933257957e-10
-5.181415958e-09
5.643100939e-10
-5.558257996e-09
5.223954755e-10
-5.881769972e-09
4.702127629e-10
-6.146887364e-09
4.109265764e-10
-6.351096948e-09
3.479245292e-10
-6.49440488e-09
2.845183639e-10
-6.579033111e-09
2.235761683e-10
-6.608890418e-09
1.671838077e-10
-6.588880099e-09
1.16408355e-10
-6.524236026e-09
7.134267478e-11
-6.419871566e-09
3.1129992e-11
-6.27975985e-09
-5.99495929e-12
-6.106508839e-09
-4.231987126e-11
-5.901589152e-09
-7.999792918e-11
-5.665329807e-09
-1.207879798e-10
-5.397374652e-09
-1.659056766e-10
-5.097126496e-09
-2.157878177e-10
-4.764303609e-09
-2.69916443e-10
-4.399451991e-09
-3.269484079e-10
-4.004259422e-09
-3.849790583e-10
-3.581701185e-09
-4.417670504e-10
-3.135981635e-09
-4.950619429e-10
-2.672235609e-09
-5.429660503e-10
-2.196066509e-09
-5.842228178e-10
-1.713088669e-09
-6.182429969e-10
-1.228575596e-09
-6.450066636e-10
-7.472106527e-10
-6.649084268e-10
-2.730258712e-10
-6.785377976e-10
1.905751292e-10
-6.865219635e-10
6.406613626e-10
-6.893672637e-10
1.074606685e-09
-6.873830641e-10
1.489947411e-09
-6.806887527e-10
1.884210362e-09
-6.692076251e-10
2.254832363e-09
-6.527694426e-10
2.59916607e-09
-6.312011711e-10
2.914518524e-09
-6.043940415e-10
3.198219552e-09
-5.723347509e-10
3.447676158e-09
-5.351055429e-10
3.660401892e-09
-4.928492301e-10
3.834008836e-09
-4.457236665e-10
3.966156077e-09
-3.938484745e-10
4.054477557e-09
-3.372659233e-10
4.096483487e-09
-2.759088366e-10
4.089488869e-09
-2.095991998e-10
4.030450198e-09
-1.380767836e-10
3.916116356e-09
-6.107849027e-11
3.743008274e-09
2.162023762e-11
3.507525511e-09
1.101407117e-10
3.206120219e-09
2.044127326e-10
2.835527667e-09
3.040989899e-10
2.393040494e-09
4.085358545e-10
1.876796075e-09
5.16691783e-10
1.286056758e-09
6.271559152e-10
6.214729509e-10
7.381399122e-10
-1.145284225e-10
8.474422215e-10
-9.178971288e-10
9.530068468e-10
-1.783357331e-09
1.05326315e-09
-2.703624765e-09
1.14549059e-09
-3.668716011e-09
1.225732721e-09
-4.666021444e-09
1.290006314e-09
-5.680610887e-09
1.334695903e-09
-6.695520069e-09
1.356497e-09
-7.692103663e-09
1.352535459e-09
-8.650450486e-09
1.320473505e-09
-9.549864102e-09
1.258627195e-09
-1.036942599e-08
1.166110631e-09
-1.108864964e-08
1.042987223e-09
-1.168820955e-08
8.904041227e-10
-1.215072629e-08
7.106988446e-10
-1.24615875e-08
5.074512759e-10
-1.260981855e-08
2.855041103e-10
-1.258868404e-08
5.085996651e-11
-1.239649597e-08
-1.893653301e-10
-1.203738489e-08
-4.269255498e-10
-1.152129353e-08
-6.53122522e-10
-1.086264367e-08
-8.609924492e-10
-1.007928231e-08
-1.04565875e-09
-9.191888822e-09
-1.203145544e-09
-8.222878699e-09
-1.330706244e-09
-7.195578999e-09
-1.426758845e-09
-6.133411398e-09
-1.490887419e-09
-5.059091748e-09
-1.523812039e-09
-3.993884626e-09
-1.527306506e-09
-2.956972111e-09
-1.504054732e-09
-1.964956643e-09
-1.457452447e-09
-1.031537537e-09
-1.3913701e-09
-1.673650387e-10
-1.309904422e-09
6.199353795e-10
-1.217138994e-09
1.325588264e-09
-1.116938334e-09
1.947382824e-09
-1.012789206e-09
2.485309341e-09
-9.076976413e-10
2.941161826e-09
-8.041412545e-10
3.318141332e-09
-7.040701749e-10
3.620472313e-09
-6.089235575e-10
3.853042585e-09
-5.196237223e-10
4.021091349e-09
-4.366547352e-10
4.130007966e-09
-3.602827132e-10
4.185173939e-09
-2.905789647e-10
4.191829037e-09
-2.274379228e-10
4.154982062e-09
-1.706214092e-10
4.079347236e-09
-1.19803704e-10
3.969311789e-09
-7.460810374e-11
3.828930837e-09
-3.464090473e-11
3.66194063e-09
4.751362399e-13
3.471804475e-09
3.10596116e-11
3.261787277e-09
5.734012179e-11
3.03502457e-09
7.944309498e-11
2.794581876e-09
9.741766357e-11
2.54347261e-09
1.112894688e-10
2.284603632e-09
1.21148994e-10
2.020649464e-09
1.272770868e-10
1.753848032e-09
1.302418146e-10
1.485811001e-09
1.308841361e-10
1.217505708e-09
1.300266939e-10
9.497031002e-10
1.277396173e-10
6.842957041e-10
1.220109667e-10
4.269750831e-10
1.070621179e-10
1.902040852e-10
7.330749573e-11
2.118277607e-11
-8.171841513e-12
-3.424145937e-10
6.860421224e-11
-6.15543584e-10
1.475393466e-10
-6.49747905e-10
1.853532545e-10
-5.679967453e-10
1.633848276e-10
-4.392779137e-10
7.546007873e-11
-2.959682024e-10
-8.001869965e-11
-1.48942731e-10
-3.038221267e-10
6.258970876e-13
-5.968282735e-10
1.538901782e-10
-9.594840586e-10
3.108032926e-10
-1.39087208e-09
4.691881151e-10
-1.887873902e-09
6.250134376e-10
-2.444657348e-09
7.730862821e-10
-3.05247365e-09
9.077377736e-10
-3.699722877e-09
1.023344854e-09
-4.372227182e-09
1.114718166e-09
-5.053670942e-09
1.177414755e-09
-5.726182626e-09
1.208023693e-09
-6.371059939e-09
1.20443835e-09
-6.969614148e-09
1.166095792e-09
-7.504094297e-09
1.094157816e-09
-7.958648838e-09
9.915945725e-10
-8.320219041e-09
8.630834366e-10
-8.579287633e-09
7.147586757e-10
-8.730420531e-09
5.538112586e-10
-8.772450632e-09
3.878249342e-10
-8.708383062e-09
2.24203114e-10
-8.544852826e-09
6.934668839e-11
-8.291283022e-09
-7.195969227e-11
-7.958841098e-09
-1.969969654e-10
-7.559424653e-09
-3.050107376e-10
-7.104672242e-09
-3.97163594e-10
-6.605058915e-09
-4.764021196e-10
-6.069303066e-09
-5.466919606e-10
-5.50453212e-09
-6.11814002e-10
-4.9162992e-09
-6.749265097e-10
-4.309096687e-09
-7.38223529e-10
-3.686806125e-09
-8.026300414e-10
-3.053209826e-09
-8.67640487e-10
-2.412439216e-09
-9.315188289e-10
-1.769212078e-09
-9.917826476e-10
-1.128896853e-09
-1.045615858e-09
-4.972997166e-10
-1.090456192e-09
1.198671284e-10
-1.124670811e-09
7.176246065e-10
-1.147920692e-09
1.292303006e-09
-1.161103711e-09
1.841834699e-09
-1.165941e-09
2.365670661e-09
-1.164439799e-09
2.864552621e-09
-1.158507115e-09
3.340092735e-09
-1.149605231e-09
3.794247904e-09
-1.138486793e-09
4.22875556e-09
-1.125098969e-09
4.644643992e-09
-1.108663305e-09
5.04193023e-09
-1.087881921e-09
5.419485643e-09
-1.061218181e-09
5.775075287e-09
-1.027166775e-09
6.105519306e-09
-9.844623748e-10
6.406921908e-09
-9.321811919e-10
6.674903466e-09
-8.697524828e-10
6.904782274e-09
-7.968849882e-10
7.091692577e-09
-7.134500684e-10
7.230618393e-09
-6.193530477e-10
7.316365816e-09
-5.144244727e-10
7.343467267e-09
-3.983210256e-10
7.306145938e-09
-2.705183848e-10
7.198131388e-09
-1.304110488e-10
7.012840055e-09
2.264739196e-11
6.743393411e-09
1.89138734e-10
6.382790647e-09
3.693007573e-10
5.924184404e-09
5.629236829e-10
5.361243667e-09
7.691881705e-10
4.688575316e-09
9.865439406e-10
3.902172236e-09
1.212634792e-09
2.999850467e-09
1.444287647e-09
1.981620349e-09
1.677560558e-09
8.499107637e-10
1.907850639e-09
-3.899641096e-10
2.130188316e-09
-1.73007007e-09
2.340300049e-09
-3.15880293e-09
2.531664518e-09
-4.660247959e-09
2.695822406e-09
-6.214491748e-09
2.824557335e-09
-7.79808774e-09
2.910444853e-09
-9.384485617e-09
2.946788342e-09
-1.094460217e-08
2.927888022e-09
-1.244750902e-08
2.849285294e-09
-1.386125345e-08
2.708028791e-09
-1.515380659e-08
2.502957806e-09
-1.629412946e-08
2.234974016e-09
-1.725331219e-08
1.907258931e-09
-1.800575935e-08
1.525412604e-09
-1.853036067e-08
1.097496613e-09
-1.881167877e-08
6.339930379e-10
-1.884072621e-08
1.475275229e-10
-1.861600647e-08
-3.472297226e-10
-1.814454925e-08
-8.334601896e-10
-1.744113926e-08
-1.294624736e-09
-1.652686967e-08
-1.717365698e-09
-1.542807168e-08
-2.091488658e-09
-1.417484583e-08
-2.40917103e-09
-1.27998862e-08
-2.665005753e-09
-1.133726786e-08
-2.855960517e-09
-9.821227387e-09
-2.98138758e-09
-8.284973196e-09
-3.042963534e-09
-6.759577127e-09
-3.044516353e-09
-5.27302399e-09
-2.99172793e-09
-3.849469073e-09
-2.891722758e-09
-2.508752798e-09
-2.752576758e-09
-1.266183963e-09
-2.582799876e-09
-1.325869297e-10
-2.390840623e-09
8.854255403e-10
-2.184653593e-09
1.785001682e-09
-1.971370772e-09
2.566486225e-09
-1.757087068e-09
3.232794866e-09
-1.546760897e-09
3.788773506e-09
-1.344194708e-09
4.240714674e-09
-1.152220712e-09
4.595822774e-09
-9.726332814e-10
4.861695986e-09
-8.062976656e-10
5.046041559e-09
-6.535892302e-10
5.156440851e-09
-5.14473813e-10
5.200183748e-09
-3.885853903e-10
5.184156663e-09
-2.753275439e-10
5.114779684e-09
-1.739594637e-10
4.997982804e-09
-8.366853926e-11
4.83920822e-09
-3.631744162e-12
4.643458955e-09
6.69126026e-11
4.415380819e-09
1.28588608e-10
4.159352409e-09
1.818392973e-10
3.879581032e-09
2.269211914e-10
3.580173321e-09
2.6394506e-10
3.265145897e-09
2.929884394e-10
2.938348332e-09
3.142806137e-10
2.603271299e-09
3.284332524e-10
2.262774281e-09
3.366270274e-10
1.918822094e-09
3.405857952e-10
1.572475565e-09
3.420372444e-10
1.224503315e-09
3.413411661e-10
8.77193773e-10
3.349346125e-10
5.3835142e-10
3.114674908e-10
2.288545188e-10
2.482293319e-10
1.155250124e-10
-2.581420276e-11
-4.355416564e-10
5.41392814e-12
-7.651993631e-10
1.966137958e-11
-7.813753623e-10
-2.027111602e-11
-6.438705353e-10
-1.299501635e-10
-4.433320041e-10
-3.14193947e-10
-2.229062386e-10
-5.739017357e-10
2.59640964e-12
-9.091783717e-10
2.311824627e-10
-1.319856911e-09
4.637038699e-10
-1.804751705e-09
6.990583252e-10
-2.360567223e-09
9.329193371e-10
-2.981004533e-09
1.158214087e-09
-3.656253283e-09
1.366200278e-09
-4.372861986e-09
1.547537561e-09
-5.113940536e-09
1.69314174e-09
-5.859630306e-09
1.794839416e-09
-6.587790215e-09
1.845902412e-09
-7.274876711e-09
1.841521222e-09
-7.896995375e-09
1.779243827e-09
-8.431076875e-09
1.659343586e-09
-8.856130132e-09
1.485059493e-09
-9.154514349e-09
1.262700376e-09
-9.313061095e-09
1.00138375e-09
-9.323956478e-09
7.125395963e-10
-9.18533102e-09
4.092162396e-10
-8.901288662e-09
1.048585267e-10
-8.481703798e-09
-1.875039923e-10
-7.94117208e-09
-4.569048476e-10
-7.297544318e-09
-6.954740512e-10
-6.570585316e-09
-8.987367058e-10
-5.780511143e-09
-1.065628731e-09
-4.946399789e-09
-1.198548321e-09
-4.085034854e-09
-1.302780511e-09
-3.210324237e-09
-1.385125262e-09
-2.333256287e-09
-1.4522165e-09
-1.462137249e-09
-1.509708713e-09
-6.036663788e-10
-1.561222394e-09
2.363144319e-10
-1.608240425e-09
1.052280008e-09
-1.650341157e-09
1.838869496e-09
-1.685756146e-09
2.590508955e-09
-1.711674596e-09
3.301229258e-09
-1.724877436e-09
3.965098741e-09
-1.722941324e-09
4.577078675e-09
-1.705322635e-09
5.134060774e-09
-1.673874588e-09
5.635641812e-09
-1.632485489e-09
6.084411128e-09
-1.586130674e-09
6.48573399e-09
-1.539807932e-09
6.847138654e-09
-1.497719256e-09
7.177421521e-09
-1.462647323e-09
7.485559152e-09
-1.435490687e-09
7.779611057e-09
-1.415173243e-09
8.065787207e-09
-1.398906157e-09
8.347855959e-09
-1.382743495e-09
8.626907302e-09
-1.362242744e-09
8.90143571e-09
-1.333064343e-09
9.167674306e-09
-1.291443249e-09
9.420063967e-09
-1.234442381e-09
9.651747617e-09
-1.159992316e-09
9.855006291e-09
-1.066766253e-09
1.002157218e-08
-9.539516756e-10
1.014281925e-08
-8.209951508e-10
1.020982947e-08
-6.673625899e-10
1.021334149e-08
-4.923360694e-10
1.014377537e-08
-2.949869117e-10
9.991056019e-09
-7.43477774e-11
9.744732747e-09
1.706963707e-10
9.394121663e-09
4.408733056e-10
8.928480338e-09
7.365002454e-10
8.337375835e-09
1.057091222e-09
7.611156825e-09
1.401104068e-09
6.741489972e-09
1.765735559e-09
5.72192664e-09
2.146807713e-09
4.548449329e-09
2.53876078e-09
3.219950531e-09
2.93475966e-09
1.738544938e-09
3.326938967e-09
1.096970927e-10
3.70688685e-09
-1.657077574e-09
4.066118707e-09
-3.545778389e-09
4.391408118e-09
-5.53470845e-09
4.668322573e-09
-7.597080916e-09
4.88324363e-09
-9.70139056e-09
5.023692715e-09
-1.181198686e-08
5.078501971e-09
-1.38898531e-08
5.038296322e-09
-1.589357952e-08
4.89596796e-09
-1.778055731e-08
4.647156427e-09
-1.950833603e-08
4.290718635e-09
-2.103611132e-08
3.829121069e-09
-2.232626064e-08
3.268709323e-09
-2.334587332e-08
2.619823569e-09
-2.406820047e-08
1.896753885e-09
-2.447409507e-08
1.117570814e-09
-2.455279622e-08
3.036009764e-10
-2.430320609e-08
-5.207841856e-10
-2.373492807e-08
-1.327997337e-09
-2.286736496e-08
-2.091610246e-09
-2.172750965e-08
-2.790600963e-09
-2.034868472e-08
-3.408387953e-09
-1.876913689e-08
-3.93218634e-09
-1.703064846e-08
-4.353024719e-09
-1.517703554e-08
-4.665816808e-09
-1.325257047e-08
-4.869438631e-09
-1.1300395e-08
-4.966668032e-09
-9.3610192e-09
-4.963928365e-09
-7.470998563e-09
-4.870797223e-09
-5.661883836e-09
-4.699328836e-09
-3.959512585e-09
-4.463220577e-09
-2.383668794e-09
-4.176923374e-09
-9.481139122e-10
-3.854783762e-09
3.390529545e-10
-3.510285904e-09
1.474776726e-09
-3.155470722e-09
2.46025269e-09
-2.800552957e-09
3.300043014e-09
-2.453738474e-09
4.001156786e-09
-2.121174258e-09
4.572422563e-09
-1.807425522e-09
5.023740499e-09
-1.515299311e-09
5.365357299e-09
-1.24596865e-09
5.60747898e-09
-9.997506914e-10
5.759965513e-09
-7.762721119e-10
5.832134758e-09
-5.74647588e-10
5.832645789e-09
-3.936612886e-10
5.769448561e-09
-2.319121472e-10
5.64978159e-09
-8.793165338e-11
5.480209293e-09
3.97162635e-11
5.266702443e-09
1.523248402e-10
5.014750054e-09
2.509400895e-10
4.729486811e-09
3.363066273e-10
4.415807484e-09
4.088660446e-10
4.078455907e-09
4.68835795e-10
3.722039173e-09
5.163882677e-10
3.350944318e-09
5.519402251e-10
2.969126913e-09
5.764986337e-10
2.579821299e-09
5.919450576e-10
2.185259875e-09
6.009711311e-10
1.78672913e-09
6.062498869e-10
1.385414292e-09
6.082473292e-10
9.848133758e-10
6.011053388e-10
5.958444136e-10
5.660200561e-10
2.465216299e-10
4.630456452e-10
2.275358461e-10
-4.293800918e-11
-5.104524651e-10
-5.358951008e-11
-8.718580328e-10
-9.649618411e-11
-8.547273651e-10
-2.021894261e-10
-6.528817096e-10
-3.819045333e-10
-3.762830758e-10
-6.37814764e-10
-7.715974671e-11
-9.690171241e-10
2.265729777e-10
-1.373956063e-09
5.322426378e-10
-1.850515376e-09
8.401073854e-10
-2.395048048e-09
1.147498648e-09
-3.001192188e-09
1.447341997e-09
-3.658967514e-09
1.728916973e-09
-4.35432225e-09
1.979389364e-09
-5.069128428e-09
2.18533424e-09
-5.781564874e-09
2.333980494e-09
-6.466818427e-09
2.414183652e-09
-7.098052612e-09
2.417223901e-09
-7.647604201e-09
2.337507853e-09
-8.088369519e-09
2.173184864e-09
-8.395318425e-09
1.926638704e-09
-8.547045389e-09
1.604753696e-09
-8.527345471e-09
1.219029993e-09
-8.326526626e-09
7.850600106e-10
-7.942270206e-09
3.215629418e-10
-7.380262888e-09
-1.505368325e-10
-6.653930716e-09
-6.102286127e-10
-5.783650956e-09
-1.03775144e-09
-4.79569926e-09
-1.416490428e-09
-3.719469461e-09
-1.735735275e-09
-2.584644006e-09
-1.991001727e-09
-1.419144068e-09
-2.183248201e-09
-2.475833514e-10
-2.31839821e-09
9.094168793e-10
-2.405865529e-09
2.035586854e-09
-2.456834266e-09
3.119815436e-09
-2.483018076e-09
4.155418509e-09
-2.494272322e-09
5.137569219e-09
-2.495896687e-09
6.062416368e-09
-2.489723059e-09
6.926083024e-09
-2.474878504e-09
7.724194037e-09
-2.448623021e-09
8.451551186e-09
-2.406940939e-09
9.102133081e-09
-2.345571632e-09
9.669709561e-09
-2.261846203e-09
1.014921989e-08
-2.156553923e-09
1.053857195e-08
-2.034826103e-09
1.084003751e-08
-1.905326832e-09
1.106077809e-08
-1.778358084e-09
1.12125398e-08
-1.663894625e-09
1.131071063e-08
-1.570095621e-09
1.137286162e-08
-1.502115597e-09
1.141690961e-08
-1.461285675e-09
1.145918734e-08
-1.444912943e-09
1.151280724e-08
-1.446874091e-09
1.158661739e-08
-1.458780898e-09
1.168477334e-08
-1.471273052e-09
1.180683324e-08
-1.475164421e-09
1.194829594e-08
-1.462371401e-09
1.210139941e-08
-1.426441668e-09
1.22559872e-08
-1.362671594e-09
1.240029659e-08
-1.267911349e-09
1.25215806e-08
-1.140181307e-09
1.260653167e-08
-9.782139795e-10
1.264149661e-08
-7.810142483e-10
1.261254063e-08
-5.47491291e-10
1.250547687e-08
-2.76397647e-10
1.230587018e-08
3.359391821e-11
1.199881255e-08
3.839212175e-10
1.156946647e-08
7.755086788e-10
1.100305203e-08
1.208610282e-09
1.028533797e-08
1.682266234e-09
9.403175726e-09
2.193930801e-09
8.34511397e-09
2.73917998e-09
7.102033868e-09
3.311556237e-09
5.667756955e-09
3.902570729e-09
4.039583551e-09
4.50186207e-09
2.218638805e-09
5.097621802e-09
2.097610397e-10
5.677525055e-09
-1.975782942e-09
6.226385564e-09
-4.317435322e-09
6.721346709e-09
-6.787673924e-09
7.14063091e-09
-9.352803232e-09
7.464043394e-09
-1.197308084e-08
7.672668424e-09
-1.460344536e-08
7.749666873e-09
-1.719454127e-08
7.681080245e-09
-1.969406818e-08
7.456639764e-09
-2.20484144e-08
7.070544921e-09
-2.420449252e-08
6.522129916e-09
-2.611167584e-08
5.81635063e-09
-2.772373071e-08
4.964031475e-09
-2.900065001e-08
3.981872233e-09
-2.991032157e-08
2.892216362e-09
-3.043016985e-08
1.722675368e-09
-3.05477947e-08
5.052568884e-10
-3.026253767e-08
-7.239609383e-10
-2.958663457e-08
-1.924399801e-09
-2.854364753e-08
-3.058216505e-09
-2.716561358e-08
-4.095864832e-09
-2.549217333e-08
-5.013140346e-09
-2.356927329e-08
-5.790967647e-09
-2.144765463e-08
-6.415613865e-09
-1.918109754e-08
-6.879000325e-09
-1.682447269e-08
-7.178959713e-09
-1.443171165e-08
-7.319247875e-09
-1.205381882e-08
-7.309230741e-09
-9.737079806e-09
-7.163206546e-09
-7.521575548e-09
-6.899392761e-09
-5.440135876e-09
-6.53867241e-09
-3.517779232e-09
-6.103209786e-09
-1.771659337e-09
-5.615089343e-09
-2.11484663e-10
-5.095094899e-09
1.159682563e-09
-4.561756584e-09
2.344358758e-09
-4.030706224e-09
3.34942354e-09
-3.514356419e-09
4.184832769e-09
-3.021788957e-09
4.862801274e-09
-2.559706687e-09
5.396787794e-09
-2.132061219e-09
5.800472278e-09
-1.740176748e-09
6.087211252e-09
-1.384004594e-09
6.269671503e-09
-1.062464936e-09
6.359600961e-09
-7.737624566e-10
6.367715668e-09
-5.156766498e-10
6.303674477e-09
-2.857924947e-10
6.176111108e-09
-8.167720286e-11
5.992719964e-09
9.898702154e-11
5.76038171e-09
2.582350343e-10
5.485327651e-09
3.97700678e-10
5.173297578e-09
5.185531876e-10
4.829693047e-09
6.215110897e-10
4.459688668e-09
7.069632334e-10
4.068267793e-09
7.75226406e-10
3.660147882e-09
8.269395203e-10
3.239596473e-09
8.635310784e-10
2.810159749e-09
8.875697296e-10
2.374451596e-09
9.026521696e-10
1.934289425e-09
9.122155091e-10
1.491745029e-09
9.164563114e-10
1.051966659e-09
9.064672099e-10
6.288998946e-10
8.5467259e-10
2.554225208e-10
7.020608838e-10
3.484690648e-10
-5.415039686e-11
-5.728359564e-10
-9.197088262e-11
-9.500334238e-10
-1.7070656e-10
-8.909359599e-10
-3.153311003e-10
-6.216652103e-10
-5.329054411e-10
-2.701169354e-10
-8.224977129e-10
1.034651165e-10
-1.180616256e-09
4.785779242e-10
-1.603170725e-09
8.519245963e-10
-2.085284396e-09
1.22294278e-09
-2.620155197e-09
1.58701462e-09
-3.197825517e-09
1.933887049e-09
-3.804304053e-09
2.24879811e-09
-4.421204856e-09
2.514526057e-09
-5.025892943e-09
2.713425777e-09
-5.59207053e-09
2.829113895e-09
-6.09073275e-09
2.847803416e-09
-6.491431198e-09
2.759418166e-09
-6.763814427e-09
2.558546743e-09
-6.879358247e-09
2.245256596e-09
-6.813201754e-09
1.825659155e-09
-6.546061185e-09
1.312257559e-09
-6.066092018e-09
7.239913452e-10
-5.370503877e-09
8.545252103e-11
-4.466226289e-09
-5.750310252e-10
-3.370159816e-09
-1.226735129e-09
-2.110680187e-09
-1.837414857e-09
-7.245432232e-10
-2.379230702e-09
7.485087432e-10
-2.832943652e-09
2.267957503e-09
-3.187476272e-09
3.794549154e-09
-3.440056927e-09
5.293551962e-09
-3.596616221e-09
6.736449239e-09
-3.669718762e-09
8.101940775e-09
-3.676347137e-09
9.376583741e-09
-3.635767794e-09
1.055433458e-08
-3.567150669e-09
1.163478648e-08
-3.485755892e-09
1.261942939e-08
-3.398813531e-09
1.350984206e-08
-3.307222137e-09
1.430610524e-08
-3.207924597e-09
1.500640609e-08
-3.095370361e-09
1.560662336e-08
-2.962369413e-09
1.610013177e-08
-2.801474856e-09
1.647871363e-08
-2.608027638e-09
1.673486884e-08
-2.383466019e-09
1.686499082e-08
-2.137071886e-09
1.687193433e-08
-1.884472805e-09
1.676602507e-08
-1.644085944e-09
1.656512422e-08
-1.434088985e-09
1.629357645e-08
-1.269709995e-09
1.597969731e-08
-1.160520812e-09
1.565278186e-08
-1.109108395e-09
1.534004085e-08
-1.110816872e-09
1.506403181e-08
-1.154854089e-09
1.484073612e-08
-1.226137636e-09
1.467871996e-08
-1.307695527e-09
1.457930763e-08
-1.382859399e-09
1.453734157e-08
-1.436789726e-09
1.454237994e-08
-1.457467734e-09
1.458008428e-08
-1.436012696e-09
1.463348863e-08
-1.366382717e-09
1.468407134e-08
-1.244799264e-09
1.471252362e-08
-1.06899594e-09
1.469919499e-08
-8.374508212e-10
1.46243388e-08
-5.488274491e-10
1.446820367e-08
-2.017447105e-10
1.421111991e-08
2.052886985e-10
1.383307109e-08
6.738164379e-10
1.331451927e-08
1.204745399e-09
1.263624148e-08
1.79802147e-09
1.177987852e-08
2.451933654e-09
1.072849368e-08
3.162614899e-09
9.46720459e-09
3.923658081e-09
7.983825765e-09
4.725924926e-09
6.2694791e-09
5.557563756e-09
4.319124613e-09
6.40422523e-09
2.131938864e-09
7.24963332e-09
-2.885236241e-10
8.076738225e-09
-2.927594767e-09
8.858814087e-09
-5.759539043e-09
9.561461042e-09
-8.750951984e-09
1.015472823e-08
-1.186048024e-08
1.060999784e-08
-1.503906144e-08
1.090021946e-08
-1.823089552e-08
1.100148197e-08
-2.137486192e-08
1.089428208e-08
-2.440640293e-08
1.056479976e-08
-2.725973714e-08
1.000600904e-08
-2.987025291e-08
9.218511792e-09
-3.217692847e-08
8.21102533e-09
-3.412463175e-08
7.000488958e-09
-3.566620307e-08
5.611828413e-09
-3.676426158e-08
4.077423159e-09
-3.739297429e-08
2.436444752e-09
-3.753840735e-08
7.335411582e-10
-3.720045289e-08
-9.815596003e-10
-3.639376165e-08
-2.653383356e-09
-3.514540462e-08
-4.231597484e-09
-3.349175623e-08
-5.677333325e-09
-3.147840794e-08
-6.957214493e-09
-2.91590499e-08
-8.044147441e-09
-2.659390061e-08
-8.917987307e-09
-2.384769499e-08
-9.566272433e-09
-2.098733219e-08
-9.984804755e-09
-1.807933191e-08
-1.017784341e-08
-1.518726482e-08
-1.01578082e-08
-1.236933375e-08
-9.944422176e-09
-9.676313587e-09
-9.563359872e-09
-7.149987094e-09
-9.044467557e-09
-4.822218217e-09
-8.419755155e-09
-2.714703897e-09
-7.721354151e-09
-8.393939346e-10
-6.979644582e-09
8.005335434e-10
-6.221741673e-09
2.209274551e-09
-5.470455918e-09
3.396757083e-09
-4.743733015e-09
4.376845133e-09
-4.054399244e-09
5.166256975e-09
-3.411839334e-09
5.783251204e-09
-2.821398497e-09
6.246099379e-09
-2.284297714e-09
6.572345227e-09
-1.799680073e-09
6.77834308e-09
-1.365228781e-09
6.878994089e-09
-9.776757248e-10
6.887634976e-09
-6.332512675e-10
6.816054197e-09
-3.280235128e-10
6.674579326e-09
-5.815279793e-11
6.472224373e-09
1.799284414e-10
6.216890006e-09
3.892987699e-10
5.915583945e-09
5.724099516e-10
5.574636253e-09
7.310342968e-10
5.199900804e-09
8.662986591e-10
4.796905661e-09
9.788514377e-10
4.370922254e-09
1.069203629e-09
3.926928617e-09
1.138236596e-09
3.46945795e-09
1.187781033e-09
3.002389466e-09
1.2210314e-09
2.528820039e-09
1.242342259e-09
2.051311317e-09
1.2556506e-09
1.573081884e-09
1.260459245e-09
1.101018432e-09
1.244180046e-09
6.516241971e-10
1.169676326e-09
2.609859554e-10
9.582743678e-10
4.749953816e-10
-5.793575918e-11
-6.299430078e-10
-1.048128962e-10
-1.017672891e-09
-1.935382436e-10
-9.156797899e-10
-3.45281506e-10
-5.818788724e-10
-5.637157153e-10
-1.616822747e-10
-8.447894465e-10
2.769163102e-10
-1.181937297e-09
7.108793258e-10
-1.567868666e-09
1.136158546e-09
-1.994252883e-09
1.551135617e-09
-2.450531022e-09
1.948951816e-09
-2.922687149e-09
2.315903096e-09
-3.39243371e-09
2.632977872e-09
-3.836957736e-09
2.878481799e-09
-4.229230568e-09
3.030633107e-09
-4.538800366e-09
3.069728963e-09
-4.733005201e-09
2.979904036e-09
-4.77855425e-09
2.750591112e-09
-4.643437113e-09
2.377802261e-09
-4.299069435e-09
1.865155696e-09
-3.722374118e-09
1.224366805e-09
-2.898304642e-09
4.760241263e-10
-1.822056168e-09
-3.506986297e-10
-5.00471973e-10
-1.219621708e-09
1.04414249e-09
-2.087094351e-09
2.773707359e-09
-2.90682302e-09
4.641122192e-09
-3.637817881e-09
6.595280809e-09
-4.248595237e-09
8.582131538e-09
-4.717405953e-09
1.054857325e-08
-5.034652952e-09
1.24463613e-08
-5.203031168e-09
1.42348965e-08
-5.236804739e-09
1.588368931e-08
-5.159375123e-09
1.737367872e-08
-4.999877774e-09
1.869786202e-08
-4.790276074e-09
1.986045928e-08
-4.561411333e-09
2.087390068e-08
-4.336704471e-09
2.175188745e-08
-4.125196977e-09
2.250541229e-08
-3.923891678e-09
2.314103901e-08
-3.724332062e-09
2.366084691e-08
-3.514977383e-09
2.406174268e-08
-3.281841042e-09
2.433477171e-08
-3.010088944e-09
2.446643433e-08
-2.689326377e-09
2.444239406e-08
-2.319466654e-09
2.425295206e-08
-1.914322167e-09
2.389762198e-08
-1.499169835e-09
2.338720121e-08
-1.104543139e-09
2.274432716e-08