/*--------------------------------*- C++ -*----------------------------------*\
| =========                 |                                                 |
| \\      /  F ield         | OpenFOAM: The Open Source CFD Toolbox           |
|  \\    /   O peration     | Version:  2412                                  |
|   \\  /    A nd           | Website:  www.openfoam.com                      |
|    \\/     M anipulation  |                                                 |
\*---------------------------------------------------------------------------*/
FoamFile
{
    version     2.0;
    format      ascii;
    arch        "LSB;label=32;scalar=64";
    class       volScalarField;
    location    "0.05";
    object      rho;
}
// * * * * * * * * * * * * * * * * * * * * * * * * * * * * * * * * * * * * * //

dimensions      [1 -3 0 0 0 0 0];

internalField   nonuniform List<scalar> 
12008
(
1.461726305
1.461683465
1.461598014
1.461466863
1.461286708
1.461053337
1.460761795
1.460406608
1.459982031
1.459482354
1.458902247
1.458237135
1.457483596
1.45663975
1.455705625
1.454683467
1.453577974
1.452396439
1.451148775
1.449847437
1.448507218
1.447144953
1.445779124
1.444429411
1.443116193
1.441860038
1.440681196
1.439599114
1.438631997
1.437796416
1.437106965
1.436575995
1.436213412
1.4360276
1.436020437
1.436194453
1.436548231
1.437077181
1.437773512
1.438626303
1.439621628
1.440742779
1.441970592
1.443283891
1.444660041
1.446075603
1.447507039
1.448931442
1.450327215
1.45167468
1.452956569
1.454158372
1.455268528
1.456278466
1.45718252
1.457977718
1.458663498
1.459241354
1.459714468
1.460087327
1.460365376
1.460554693
1.460661739
1.460693145
1.460655578
1.46055537
1.460398761
1.460191913
1.459940673
1.459650526
1.459326544
1.458973315
1.458594879
1.458194677
1.457775552
1.457339803
1.456889314
1.456425766
1.455950912
1.455466901
1.454976606
1.454483927
1.453994011
1.453513359
1.453049792
1.45261227
1.452210574
1.451854872
1.451555222
1.45132104
1.451160678
1.451081788
1.451086516
1.451178182
1.45135685
1.451620196
1.451963511
1.452379973
1.452860987
1.453396506
1.453975444
1.454586109
1.455216628
1.455855349
1.456491216
1.457114091
1.457715015
1.458286407
1.45882219
1.459317844
1.459770386
1.46017829
1.460541358
1.46086054
1.46113774
1.4613756
1.461577293
1.46174632
1.461886334
1.462000987
1.462093808
1.462168109
1.462226921
1.462272955
1.462308591
1.462335873
1.46235653
1.462372
1.462383457
1.462391847
1.462397922
1.462402272
1.46240535
1.462407505
1.462409
1.462410031
1.462410748
1.462411262
1.462411658
1.462411958
1.461693837
1.461649352
1.461560412
1.461423955
1.461236569
1.460993908
1.460690874
1.460321839
1.459880901
1.459362202
1.458760271
1.458070423
1.457289159
1.456414569
1.455446708
1.454387906
1.453243014
1.452019539
1.450727677
1.449380223
1.447992369
1.446581394
1.445166274
1.443767216
1.442405154
1.441101225
1.439876247
1.438750219
1.437741858
1.436868188
1.436144182
1.435582464
1.435193064
1.434985162
1.434959909
1.435120194
1.4354649
1.435989656
1.436686945
1.437546162
1.438553728
1.439693253
1.440945809
1.442290299
1.443703975
1.445163049
1.446643404
1.448121328
1.449574252
1.450981402
1.452324346
1.453587394
1.454757839
1.455826049
1.456785403
1.457632116
1.458364962
1.458984943
1.459494909
1.459899182
1.460203183
1.460413104
1.460535621
1.460577654
1.460546385
1.460448421
1.460290169
1.460078274
1.459818821
1.459517438
1.45917922
1.458808654
1.458409552
1.457985033
1.457537548
1.457068989
1.456580889
1.456074696
1.455552121
1.455015518
1.454468256
1.45391503
1.453362078
1.452817235
1.45228984
1.451790466
1.451330512
1.45092168
1.450575399
1.450302222
1.450111266
1.450011935
1.450005096
1.450094641
1.45028065
1.450560454
1.450928803
1.451378176
1.451899087
1.452480527
1.453110397
1.453775952
1.454464252
1.455162585
1.455858862
1.456541959
1.457202005
1.457830598
1.458420951
1.458967956
1.459468177
1.459919774
1.460322364
1.46067684
1.460985162
1.461250124
1.461475124
1.461663951
1.461820582
1.461949013
1.462053121
1.462136559
1.46220268
1.462254494
1.462294646
1.462325417
1.462348739
1.46236622
1.462379178
1.462388676
1.462395559
1.46240049
1.462403982
1.462406427
1.462408119
1.462409279
1.462410071
1.462410624
1.462411077
1.462411689
1.461630416
1.46158251
1.461486714
1.46133982
1.461138217
1.460877321
1.460551772
1.460155663
1.459682815
1.459127097
1.458482799
1.457745034
1.456910164
1.455976213
1.454943254
1.453813737
1.452592727
1.451288053
1.449910336
1.448472905
1.446991595
1.445484448
1.443971317
1.442473407
1.441012759
1.439611711
1.43829234
1.437075924
1.435982419
1.435029994
1.434234615
1.433609703
1.433165857
1.432912365
1.432851348
1.432984986
1.433312639
1.433830305
1.434530776
1.435403884
1.436436584
1.437613035
1.438914742
1.440320802
1.441808295
1.443352833
1.444929237
1.446512312
1.448077635
1.449602318
1.451065655
1.452449641
1.453739309
1.454922907
1.455991906
1.456940877
1.457767253
1.458471015
1.459054324
1.459521136
1.459876806
1.460127726
1.460280991
1.46034411
1.460325001
1.460231343
1.460069523
1.459847188
1.459570894
1.459246526
1.458879194
1.458473139
1.458031686
1.457557262
1.457051513
1.456515519
1.455950127
1.455356376
1.454735972
1.45409178
1.453428272
1.45275185
1.45207102
1.451396356
1.450740255
1.450116502
1.449539681
1.449024487
1.448585001
1.44823399
1.447982261
1.447841147
1.447811683
1.447896786
1.448097252
1.448409769
1.448828021
1.449343086
1.449943844
1.450617438
1.451349774
1.452126016
1.452931079
1.453750101
1.454568883
1.455374283
1.456154549
1.456899584
1.457601126
1.45825285
1.458850375
1.459391197
1.459874544
1.460301182
1.460673169
1.460993599
1.461266331
1.461495728
1.461686425
1.461843117
1.46197039
1.462072593
1.462153734
1.462217433
1.462266878
1.462304834
1.462333646
1.462355274
1.462371329
1.462383114
1.462391666
1.462397801
1.462402149
1.462405194
1.462407298
1.46240873
1.462409683
1.462410299
1.462410714
1.462411364
1.461535466
1.461482547
1.461376689
1.461214483
1.46099205
1.460704488
1.460346083
1.459910561
1.459391368
1.458782012
1.45807645
1.457269506
1.456357316
1.455337757
1.454210842
1.452979061
1.451647625
1.450224629
1.448721097
1.447150915
1.445530668
1.443879365
1.442218084
1.440569529
1.438957521
1.437406435
1.435940588
1.434583609
1.433357807
1.432283566
1.431378798
1.430658487
1.430134331
1.429815345
1.429705152
1.429804772
1.430113146
1.430626578
1.431337488
1.432235747
1.43330869
1.434541095
1.435915128
1.437410366
1.439003971
1.440671062
1.442385306
1.444119678
1.445847326
1.447542459
1.449181165
1.45074209
1.452206939
1.453560786
1.454792199
1.455893205
1.45685912
1.457688276
1.458381679
1.458942612
1.459376224
1.459689117
1.459888946
1.459984052
1.45998318
1.459896014
1.459728627
1.459490116
1.459187693
1.45882756
1.458414757
1.457953056
1.457444951
1.456891758
1.45629388
1.455651201
1.454963643
1.454231801
1.45345762
1.452645041
1.451800515
1.450933334
1.450055691
1.449182472
1.448330771
1.44751919
1.446766987
1.446093158
1.445515526
1.445049922
1.444709475
1.444507645
1.444446725
1.444526922
1.444750538
1.445113278
1.445607283
1.446221637
1.446942861
1.447755456
1.448642459
1.449586001
1.450567863
1.451570008
1.45257509
1.453566923
1.45453089
1.455454282
1.456326543
1.457139429
1.457887045
1.458565798
1.459174251
1.459712904
1.460183912
1.460590777
1.46093802
1.46123086
1.461474916
1.461675944
1.461839616
1.461971344
1.462076156
1.462158606
1.462222736
1.462272057
1.462309564
1.46233777
1.462358742
1.462374162
1.46238537
1.462393422
1.462399138
1.462403144
1.462405911
1.462407787
1.462409025
1.462409802
1.462410287
1.462410978
1.461409408
1.461350001
1.461231116
1.461049098
1.460799749
1.460477789
1.460077089
1.459590933
1.459012318
1.458334302
1.457550406
1.456655045
1.455643986
1.454514783
1.453267186
1.451903492
1.450428808
1.448851246
1.447182008
1.445435392
1.443628699
1.441782047
1.439918098
1.438061679
1.436239299
1.434478552
1.432807424
1.4312535
1.429843126
1.428600542
1.427547072
1.426700396
1.426074001
1.42567693
1.425513226
1.425582397
1.425880603
1.42640481
1.42714438
1.42808798
1.429222497
1.430533011
1.432002528
1.433611663
1.435338411
1.437158161
1.439044013
1.440967416
1.442899056
1.444809882
1.446672135
1.448460266
1.450151667
1.451727187
1.453171433
1.454472879
1.4556238
1.45662009
1.457460955
1.45814854
1.458687494
1.459084502
1.459347802
1.459486696
1.459511082
1.459432653
1.459257929
1.458997088
1.458658297
1.458248023
1.457771032
1.457230287
1.456627006
1.455960921
1.455230755
1.454434911
1.453572323
1.452643397
1.451650925
1.450600895
1.449503064
1.448371202
1.447222949
1.446079308
1.444963811
1.443901449
1.442917482
1.442036246
1.441280052
1.440668261
1.440216544
1.439940742
1.43984437
1.439923416
1.440182367
1.440615515
1.441212953
1.441961227
1.442843922
1.443842273
1.444935782
1.446102824
1.447321252
1.448569001
1.449824672
1.451068095
1.452280841
1.453446663
1.454551846
1.455585435
1.456539354
1.457408381
1.458190022
1.458884262
1.459493253
1.460020934
1.460472633
1.460854659
1.461173927
1.461437606
1.461652835
1.461826482
1.461964969
1.462074153
1.462159258
1.462224842
1.462274815
1.462312463
1.462340508
1.462361163
1.462376202
1.462387025
1.46239472
1.462400121
1.462403855
1.462406388
1.462408056
1.462409101
1.462409734
1.462410493
1.461252852
1.46118562
1.461051018
1.460845118
1.460563365
1.460200057
1.4597486
1.459201776
1.458552048
1.457791917
1.456914322
1.455913078
1.454783327
1.453521986
1.452128155
1.450603491
1.448952511
1.447182846
1.445305425
1.443334606
1.441288237
1.439187638
1.437057478
1.434925523
1.432822203
1.430779992
1.428832574
1.427013818
1.425356598
1.423891511
1.422645585
1.421641045
1.420894299
1.420415277
1.420207188
1.420265958
1.420582432
1.421153523
1.421960645
1.422988382
1.424220942
1.425642409
1.427236369
1.428985138
1.430868889
1.432864947
1.434947491
1.43708778
1.439254905
1.441416906
1.443542049
1.44560007
1.447563234
1.44940716
1.451111383
1.452659684
1.454040207
1.455245403
1.456271823
1.457119787
1.457792944
1.458297759
1.458642923
1.458838722
1.458896397
1.458829264
1.458645696
1.458355724
1.457968912
1.457491773
1.456928434
1.456280564
1.455547568
1.454727087
1.453815818
1.452810598
1.45170966
1.450513932
1.449228214
1.447862126
1.446430642
1.444954112
1.443457763
1.441970733
1.440524749
1.439152589
1.437886509
1.436756768
1.43579037
1.435010099
1.434433832
1.434080151
1.433951762
1.434039873
1.434351431
1.434878713
1.435609242
1.436526585
1.437611012
1.438840156
1.440189633
1.441633666
1.443145717
1.444699133
1.446267801
1.447826811
1.44935309
1.450825971
1.452227683
1.453543705
1.454762983
1.455877983
1.456884595
1.457781892
1.458571768
1.459258505
1.459848274
1.460348639
1.46076806
1.461115451
1.461399788
1.461629792
1.461813683
1.461959009
1.462072539
1.462160218
1.462227162
1.462277695
1.462315407
1.462343233
1.462363529
1.46237816
1.462388581
1.462395909
1.462400985
1.462404434
1.462406712
1.462408144
1.462409003
1.462409866
1.461066659
1.46099041
1.460837701
1.46060431
1.460285298
1.459874506
1.45936482
1.458748442
1.458017194
1.457162851
1.456177537
1.455054146
1.453786777
1.452371178
1.450805163
1.449089019
1.447225879
1.445222093
1.443087587
1.440836205
1.438486034
1.436059652
1.433584259
1.431091612
1.428617694
1.426202057
1.423886823
1.421715334
1.419730502
1.417972941
1.416478943
1.415278425
1.414393072
1.413834963
1.413605981
1.413694921
1.414087091
1.414773762
1.415722084
1.416906915
1.418304905
1.419895661
1.421661638
1.423586991
1.425655773
1.427849979
1.430147979
1.43252375
1.434947086
1.437384646
1.439801476
1.442162667
1.444434895
1.446587697
1.448594435
1.450432963
1.452086018
1.453541388
1.454791854
1.455834969
1.456672641
1.457310579
1.457757599
1.458024816
1.45812477
1.458072102
1.457877957
1.457551055
1.457102502
1.456538465
1.455861885
1.455072509
1.454167328
1.453141456
1.451989434
1.450706843
1.449292058
1.447747928
1.446083197
1.44431348
1.442461574
1.440557047
1.438635166
1.436735282
1.434898881
1.433167514
1.431580835
1.430174898
1.428980851
1.428024047
1.427323521
1.426901242
1.42675387
1.426869619
1.427257172
1.427906019
1.428800611
1.429921266
1.431244864
1.432745458
1.434394857
1.436163195
1.438019527
1.439932474
1.441870926
1.44380478
1.445705701
1.447547848
1.449308538
1.45096877
1.452513607
1.45393235
1.455218523
1.456369672
1.457386985
1.458274798
1.459040011
1.459691471
1.460239349
1.460694565
1.461068272
1.461371429
1.46161446
1.461807015
1.461957806
1.462074528
1.462163841
1.462231398
1.462281916
1.46231926
1.462346549
1.462366258
1.462380321
1.462390228
1.462397106
1.462401793
1.4624049
1.462406864
1.462408037
1.462409045
1.460852008
1.460765704
1.460592806
1.460328784
1.45996829
1.459504661
1.458930187
1.458236376
1.457414216
1.456454492
1.455348133
1.454086596
1.452662279
1.451068939
1.44930214
1.447359707
1.44524224
1.442953669
1.440501891
1.437899459
1.43516428
1.432320269
1.429397822
1.426434012
1.423472389
1.420562297
1.417757657
1.415115247
1.412692521
1.410545028
1.408723483
1.407270545
1.406217586
1.405581977
1.405365558
1.40554385
1.406104347
1.407018839
1.408232945
1.40970227
1.411386719
1.413253793
1.41527974
1.417448598
1.419749443
1.422172533
1.424705358
1.427329752
1.43002075
1.432747076
1.435472789
1.43815945
1.440768341
1.443262427
1.445607935
1.44777553
1.449741135
1.451486431
1.452999064
1.454272588
1.455306142
1.456103879
1.456674156
1.457028526
1.457180563
1.457145773
1.456938735
1.456565433
1.456038447
1.45536296
1.454539993
1.453566645
1.452436928
1.451143217
1.449678208
1.448037193
1.446220357
1.444234816
1.442096178
1.439829308
1.437468124
1.435054466
1.432636183
1.430264682
1.427992245
1.425869421
1.423942746
1.422252977
1.420833904
1.41971173
1.418904866
1.418439696
1.418297127
1.418468614
1.418961868
1.419762718
1.420852165
1.422207286
1.423801844
1.425606792
1.427590707
1.429720225
1.431960529
1.43427592
1.436630501
1.438988959
1.441317427
1.443584377
1.445761484
1.447824378
1.449753247
1.451533213
1.453154471
1.454612176
1.455906102
1.457040109
1.458021485
1.458860204
1.459568159
1.460158429
1.460644608
1.461040236
1.461358335
1.461611069
1.461809508
1.461963494
1.462081597
1.462171129
1.46223822
1.462287916
1.4623243
1.462350629
1.462369452
1.462382739
1.462391983
1.4623983
1.462402503
1.462405176
1.462406769
1.462407973
1.460610457
1.460513203
1.460318328
1.460020981
1.459615359
1.459094219
1.458449132
1.4576707
1.456748782
1.455672735
1.454431697
1.453014915
1.4514121
1.449613848
1.447612112
1.445400787
1.44297642
1.440339085
1.437493425
1.434449829
1.431225663
1.427846412
1.424346589
1.420770207
1.417170687
1.413610095
1.410157701
1.406887903
1.403877588
1.401202965
1.398935759
1.397138621
1.395859969
1.395129058
1.394952825
1.395285918
1.39613683
1.397437764
1.39910466
1.401059937
1.403231658
1.405560922
1.408006223
1.410544396
1.413167853
1.415878394
1.418679321
1.421568479
1.42453399
1.427553099
1.430593494
1.433616043
1.43657798
1.439435904
1.442148301
1.444677504
1.44699116
1.449063232
1.45087461
1.452413336
1.453674444
1.454659416
1.455375269
1.455833309
1.4560476
1.456033805
1.455810284
1.455378538
1.454752269
1.4539348
1.452924339
1.451714604
1.450296288
1.44865929
1.446795525
1.444701938
1.442383325
1.439854626
1.437142338
1.434284688
1.431330528
1.428337129
1.425367153
1.422485214
1.419754444
1.417233447
1.414973916
1.413019025
1.411402638
1.410149263
1.409274773
1.408809964
1.408706503
1.408971436
1.409605516
1.410590222
1.411903012
1.413518062
1.415406704
1.417537708
1.419877491
1.422390335
1.425038665
1.427783469
1.430584868
1.433402875
1.436198307
1.438933816
1.441574963
1.444091244
1.446456984
1.448651999
1.450661983
1.452478578
1.454099136
1.455526211
1.456766847
1.457831736
1.458734291
1.459489732
1.460114233
1.460624173
1.461035516
1.461363332
1.461621462
1.461822309
1.461976744
1.4620941
1.462182239
1.462247666
1.462295666
1.46233047
1.462355402
1.462373037
1.462385334
1.462393759
1.462399384
1.462402979
1.462405121
1.462406581
1.460343961
1.460234992
1.460016607
1.459683604
1.459229655
1.458646801
1.457925668
1.457055625
1.456024917
1.454820811
1.453429784
1.451837757
1.450030412
1.447993613
1.445713975
1.443179657
1.440381404
1.437313892
1.433977355
1.430379394
1.426536852
1.422477518
1.418241403
1.413881383
1.409463065
1.405063827
1.400771109
1.396680092
1.392890943
1.389505562
1.386623455
1.38433605
1.382719368
1.381825936
1.381679479
1.382210613
1.383474389
1.385350165
1.387714195
1.390438512
1.393398178
1.396484925
1.399617471
1.402748195
1.405863614
1.40897694
1.412114729
1.415302497
1.418553904
1.421865609
1.425217225
1.428574499
1.431893833
1.435126852
1.438224378
1.441139603
1.443830516
1.446261671
1.448405385
1.450242397
1.451761981
1.452961496
1.453845394
1.454423699
1.454710063
1.454719362
1.454473443
1.453967515
1.453215516
1.452217879
1.450969042
1.449458798
1.447674671
1.445605189
1.443243678
1.440592016
1.437663848
1.434486846
1.431103469
1.427570027
1.42395422
1.420331474
1.416780591
1.413379281
1.410200112
1.407307292
1.404754502
1.402583805
1.400825502
1.399498694
1.39861945
1.398211147
1.398191228
1.398595468
1.399408794
1.400608327
1.402168292
1.40406066
1.406255348
1.408720223
1.411421019
1.41432126
1.41738226
1.420563283
1.423821902
1.427114627
1.430397772
1.433628559
1.43676638
1.439774112
1.442619353
1.445275475
1.447722358
1.449946767
1.451942324
1.453709106
1.455252951
1.456584535
1.457718304
1.458671371
1.459462443
1.460110859
1.460635773
1.4610555
1.46138704
1.461645766
1.461845253
1.461997237
1.462111661
1.462196794
1.46225939
1.462304871
1.46233752
1.462360662
1.462376835
1.462387943
1.462395383
1.462400157
1.462403002
1.462404789
1.460054863
1.459933499
1.459690243
1.459319481
1.458814226
1.458165573
1.457362852
1.456393678
1.45524397
1.453897958
1.452338251
1.450545977
1.448501073
1.44618277
1.443570368
1.440644374
1.437388074
1.433789546
1.429844043
1.425556598
1.420944553
1.416039682
1.410889607
1.405558265
1.400125391
1.394685075
1.389343678
1.384217478
1.379430389
1.375111656
1.371392709
1.368401604
1.366254293
1.365042956
1.36482876
1.365531079
1.36726939
1.369891201
1.373217963
1.377054904
1.381200467
1.385466405
1.389696047
1.393783029
1.397682999
1.401410557
1.405020416
1.408580486
1.412148252
1.415756948
1.419411802
1.423093101
1.426762481
1.430369842
1.433859553
1.437175478
1.440264853
1.443081175
1.445586253
1.447751505
1.449558484
1.450998629
1.452072205
1.452786504
1.45315336
1.453186271
1.452907925
1.452307328
1.451395843
1.45017042
1.448620833
1.446732873
1.444491933
1.441887548
1.438918199
1.435595649
1.431948262
1.428022605
1.423882873
1.41960826
1.415288633
1.411019129
1.406894411
1.40300334
1.399424652
1.396224012
1.393452532
1.391146629
1.389328852
1.388009047
1.387212242
1.386910476
1.387037991
1.387630509
1.388661513
1.390103433
1.391927791
1.394105271
1.396605582
1.399397144
1.402446695
1.405718882
1.409175923
1.412777422
1.416480406
1.420239685
1.424008548
1.427739827
1.431387259
1.434907063
1.438259558
1.441410667
1.444333128
1.447007309
1.449421529
1.451571896
1.453461704
1.45510052
1.456503001
1.4576876
1.458675263
1.459488219
1.460148916
1.460679154
1.46109942
1.461428434
1.461682873
1.461877265
1.462024
1.462133441
1.462214098
1.462272833
1.462315087
1.462345101
1.462366124
1.462380597
1.462390318
1.462396578
1.462400311
1.462402512
1.459745819
1.459611413
1.459341966
1.458931348
1.458371695
1.457652796
1.456762146
1.455684864
1.454403546
1.452898123
1.45114579
1.449121088
1.446796226
1.44414176
1.441127738
1.437725424
1.433909638
1.429661688
1.424972693
1.419846972
1.414305045
1.408385814
1.402147573
1.395667689
1.389041081
1.382377843
1.375800594
1.36944228
1.36344511
1.357960589
1.353149357
1.349178178
1.346212614
1.344403672
1.343878113
1.344591486
1.346715008
1.350157668
1.354659057
1.359947852
1.365729309
1.371704824
1.377595158
1.383177872
1.388325251
1.393021531
1.397344505
1.401419819
1.405373631
1.409301159
1.413254395
1.417243607
1.421245806
1.425215106
1.429092319
1.432812792
1.436312445
1.439532285
1.442421685
1.444940563
1.447060534
1.448764956
1.450047893
1.450912007
1.451365546
1.451418833
1.45109365
1.450370864
1.449257308
1.447745415
1.445819874
1.443463299
1.440661378
1.437408783
1.433714808
1.429607975
1.425138742
1.420379535
1.415422098
1.410372522
1.405344676
1.400452956
1.39580535
1.391497686
1.38760962
1.384202563
1.381319458
1.378986039
1.377213307
1.376001246
1.375378277
1.375238463
1.375582457
1.376412894
1.377697074
1.379403507
1.38150185
1.38396251
1.38675617
1.389853206
1.393223007
1.396833253
1.400649215
1.404633167
1.408743999
1.412937165
1.41716505
1.421377823
1.425524773
1.429556049
1.43342463
1.437088328
1.440511574
1.44366681
1.446535328
1.449107496
1.451382396
1.453367012
1.455075013
1.456525293
1.45774044
1.458745249
1.459565371
1.460226185
1.460751893
1.461164878
1.461485286
1.461730814
1.461916669
1.462055653
1.462158336
1.462233286
1.462287328
1.4623258
1.462352806
1.462371442
1.462383992
1.462392097
1.462396933
1.462399649
1.459419689
1.459271537
1.458974445
1.458521591
1.457903897
1.457109321
1.456122772
1.454925862
1.453496576
1.451808974
1.449833016
1.447534662
1.444876369
1.441818167
1.438319453
1.434341609
1.429851441
1.42482523
1.419253025
1.413142612
1.406522535
1.399443637
1.391978796
1.384220952
1.376279833
1.368278105
1.360347906
1.352628887
1.345268886
1.338427428
1.33228051
1.327023227
1.322868928
1.32003861
1.318753899
1.319134473
1.321305157
1.325446011
1.331178999
1.338147804
1.345969356
1.354220193
1.362454031
1.370254612
1.377318359
1.383527201
1.388953299
1.393789954
1.398262842
1.402564548
1.40682461
1.411106339
1.415417667
1.41972647
1.423975194
1.428092888
1.43200441
1.435637273
1.438926623
1.441818659
1.444272623
1.446261323
1.447770182
1.44879485
1.449337646
1.449403332
1.449010911
1.448129777
1.446761099
1.444891692
1.442501567
1.439572413
1.436094557
1.432074107
1.427539036
1.422543293
1.417167728
1.411517583
1.405716962
1.399901022
1.394207012
1.388765402
1.383692316
1.379084092
1.375014356
1.371533534
1.368670324
1.366434484
1.364820268
1.363842173
1.363457503
1.363552986
1.364176362
1.365289865
1.36685688
1.368843249
1.371217692
1.373951216
1.377016431
1.380386777
1.384035651
1.38793543
1.392056436
1.39636592
1.400827188
1.405399011
1.410035487
1.414686494
1.419298797
1.423817795
1.428189752
1.432364264
1.436296684
1.439950204
1.443297376
1.446320927
1.449013797
1.451378575
1.453426366
1.455175241
1.456648488
1.45787284
1.458876818
1.45968928
1.46033823
1.460849935
1.461248308
1.461554564
1.461787083
1.46196145
1.462090614
1.462185127
1.462253435
1.462302174
1.462336464
1.462360181
1.46237619
1.462386557
1.462392748
1.462396097
1.459079384
1.458916622
1.458590073
1.458091956
1.457411506
1.456534132
1.455441167
1.45410944
1.452510767
1.450611532
1.448372506
1.445749113
1.442692349
1.43915057
1.435072314
1.430410195
1.425125682
1.419194371
1.412611042
1.405393695
1.397585763
1.389255976
1.3804958
1.371414901
1.362135508
1.352786764
1.343500295
1.334408384
1.325646253
1.317359004
1.309711671
1.302899246
1.297158615
1.292767036
1.290043074
1.289485445
1.291075908
1.295495873
1.302283984
1.31093752
1.321030024
1.33202337
1.34329919
1.354175958
1.364035266
1.372520758
1.379625682
1.385604404
1.390816262
1.39559745
1.400197196
1.404764074
1.409359052
1.413977698
1.418572128
1.423069094
1.427383746
1.43142973
1.435126493
1.43840436
1.441207654
1.443495885
1.445242987
1.446434711
1.447064503
1.447128559
1.446640955
1.445555267
1.443866718
1.441555795
1.438599582
1.4349831
1.430708064
1.425800783
1.420317906
1.414348593
1.408012334
1.40145292
1.39482939
1.388305198
1.382037117
1.376165434
1.37080664
1.366049302
1.361953141
1.358550784
1.355851354
1.353844928
1.352516853
1.351876964
1.351766124
1.35219323
1.35314578
1.354578011
1.356449362
1.35872388
1.361370081
1.364360168
1.367669241
1.371274472
1.375154137
1.379286484
1.383648432
1.388214166
1.392953751
1.397831937
1.402807366
1.407832418
1.412853876
1.41781446
1.422655137
1.42731795
1.431749042
1.4359015
1.439737694
1.44323086
1.44636577
1.449138565
1.451555896
1.453633385
1.45539372
1.456864627
1.458076871
1.459062455
1.459853092
1.460479013
1.460968112
1.461345408
1.461632778
1.461848918
1.462009469
1.462127257
1.462212596
1.462273632
1.462316671
1.462346506
1.462366692
1.462379794
1.462387627
1.462391744
1.458727677
1.45854916
1.45819073
1.457643281
1.45689373
1.455924012
1.454710671
1.453224245
1.451428633
1.449280657
1.446730046
1.443720133
1.440189553
1.436075156
1.431316278
1.425860227
1.419668551
1.412723324
1.405032408
1.39663262
1.387589982
1.377996746
1.367965601
1.357622059
1.34709635
1.336516185
1.326001563
1.315662931
1.305604229
1.295931501
1.28676538
1.278255774
1.270610759
1.264110954
1.259158467
1.256464479
1.256642007
1.260599434
1.268042015
1.278119872
1.290465778
1.304394287
1.31924416
1.334078104
1.34777712
1.359519345
1.369078758
1.376731807
1.383003846
1.388431202
1.393436752
1.398296206
1.403152598
1.408047815
1.412954751
1.417803881
1.422503292
1.426953207
1.431056371
1.43472529
1.437886807
1.440484174
1.442476621
1.443836597
1.44454516
1.444586419
1.443966671
1.442619121
1.440533716
1.437684777
1.434050166
1.42962506
1.424432011
1.418528792
1.412012143
1.405016165
1.397705809
1.390266514
1.382891399
1.375767715
1.369064404
1.362922428
1.357448949
1.352715618
1.348760482
1.345592496
1.343197471
1.341544291
1.340640648
1.340356291
1.340612433
1.341427124
1.342746238
1.344520855
1.346708186
1.349271505
1.352179714
1.355406537
1.358929772
1.362730524
1.366792257
1.371099617
1.375636969
1.380386699
1.38532736
1.390431867
1.395665971
1.400987359
1.406345668
1.411683588
1.416939009
1.42204799
1.426948231
1.431582634
1.435902518
1.439870128
1.443460159
1.4466602
1.449470346
1.451901853
1.453975192
1.455717796
1.457161747
1.458341596
1.459292452
1.460048429
1.460641485
1.461100643
1.461451546
1.461716299
1.461913536
1.462058634
1.462164031
1.462239596
1.462293006
1.462330113
1.462355275
1.462371644
1.46238144
1.462386475
1.458367018
1.45817119
1.457777586
1.457175291
1.456348115
1.45527342
1.45392155
1.452255101
1.450228268
1.447786571
1.444867288
1.44140095
1.437314253
1.432534563
1.426996002
1.420646689
1.413456318
1.405422843
1.396576928
1.386982956
1.376736038
1.365955231
1.354774091
1.343330152
1.331755056
1.3201666
1.308663548
1.29732392
1.286207832
1.275365072
1.264844462
1.254704229
1.245054918
1.236083067
1.228109567
1.221856205
1.218125948
1.221789698
1.229032938
1.24011342
1.254630014
1.271198577
1.28972302
1.309275172
1.32794725
1.344085246
1.357042328
1.367037341
1.374784677
1.3810845
1.386597022
1.39177479
1.396877582
1.402016147
1.407197996
1.412365238
1.417422869
1.422259046
1.426759411
1.430817032
1.434338809
1.437248656
1.439487562
1.441010787
1.441782934
1.441772706
1.440973123
1.439295097
1.436724068
1.433229922
1.42879761
1.4234422
1.41721936
1.410231433
1.402626729
1.394592466
1.386342875
1.378104224
1.370098642
1.362528758
1.355565188
1.349338426
1.343935826
1.339403315
1.335750686
1.332959024
1.330988996
1.329830768
1.329384833
1.329490974
1.330191753
1.331422696
1.333126054
1.335250796
1.337753289
1.340597013
1.343751802
1.347193144
1.350901571
1.354862021
1.359063003
1.363495459
1.36815126
1.37302132
1.378093388
1.383349692
1.388764713
1.394303511
1.399921047
1.405562738
1.411166207
1.416664056
1.421987448
1.427070139
1.431852493
1.436284987
1.440330767
1.443966967
1.447185008
1.449989709
1.452397441
1.454433771
1.456130874
1.457524975
1.458654026
1.459555743
1.460266087
1.46081817
1.46124159
1.461562112
1.461801627
1.46197833
1.46210703
1.462199534
1.462265073
1.462310712
1.462341726
1.462361945
1.462374058
1.462380179
1.457999356
1.457784134
1.457350953
1.456686498
1.455770555
1.454574665
1.453061465
1.451183953
1.448885005
1.446097552
1.442745823
1.43874811
1.434021359
1.42848767
1.422082383
1.414762915
1.406517001
1.3973687
1.387380624
1.37665139
1.36530833
1.353496511
1.341365972
1.329059298
1.316701319
1.304391884
1.292201866
1.28017229
1.268316751
1.256626282
1.245070945
1.233594523
1.222158574
1.210765721
1.199493741
1.188703456
1.181784617
1.183122845
1.188156884
1.198104767
1.215313419
1.232937643
1.254367137
1.279345205
1.304333663
1.326090205
1.343417052
1.356467854
1.366149616
1.373581879
1.379726421
1.385263698
1.390606305
1.395957841
1.40137567
1.406822717
1.412205948
1.417403682
1.422284708
1.426721478
1.430598688
1.433817817
1.43629783
1.437972475
1.438785163
1.43868747
1.437648463
1.435560902
1.43240521
1.42815124
1.422800403
1.416400414
1.409054707
1.400923715
1.392217247
1.383180532
1.374076529
1.365166828
1.356693192
1.348861853
1.341832535
1.33571345
1.330562287
1.326392005
1.323179573
1.32087595
1.319456616
1.318851916
1.318816141
1.319410995
1.320567191
1.322215429
1.324296064
1.326757778
1.329557609
1.332660344
1.336037521
1.339666877
1.343531905
1.34762136
1.35192856
1.356450342
1.361185575
1.366133156
1.371289511
1.376645751
1.382184825
1.387879278
1.393690215
1.39956762
1.405451655
1.41127482
1.416965005
1.42244941
1.427659012
1.432532955
1.437022253
1.441092238
1.444723799
1.447913275
1.450670945
1.453018719
1.454987379
1.456613689
1.457937645
1.459000079
1.459840708
1.460496694
1.461001681
1.461385264
1.46167282
1.461885597
1.462041001
1.46215299
1.462232528
1.462288043
1.462325851
1.462350548
1.462365363
1.462372749
1.457626016
1.457388695
1.456910237
1.456174266
1.455155526
1.453818437
1.452116447
1.449991484
1.447373924
1.44418358
1.440332225
1.43572809
1.430282563
1.423918892
1.416582136
1.408248963
1.398935447
1.388700908
1.377646398
1.365907441
1.353641989
1.341015619
1.328186582
1.31529303
1.302443939
1.289714111
1.277142649
1.264733948
1.252460456
1.240265301
1.228056473
1.215682818
1.202947424
1.189487978
1.174446704
1.224443484
1.239217354
1.236003039
1.233096333
1.231963089
1.21425803
1.191271237
1.212973968
1.244396647
1.277332327
1.306030247
1.328532914
1.345189192
1.357187524
1.36598318
1.37287921
1.378820918
1.384402306
1.389940394
1.39555651
1.401243613
1.406916214
1.412445686
1.417684836
1.422484806
1.426706142
1.430224876
1.43293405
1.434741294
1.435563822
1.435333132
1.433985677
1.431400833