/*--------------------------------*- C++ -*----------------------------------*\
| =========                 |                                                 |
| \\      /  F ield         | OpenFOAM: The Open Source CFD Toolbox           |
|  \\    /   O peration     | Version:  2412                                  |
|   \\  /    A nd           | Website:  www.openfoam.com                      |
|    \\/     M anipulation  |                                                 |
\*---------------------------------------------------------------------------*/
FoamFile
{
    version     2.0;
    format      ascii;
    arch        "LSB;label=32;scalar=64";
    class       surfaceScalarField;
    location    "0.05";
    object      phi;
}
// * * * * * * * * * * * * * * * * * * * * * * * * * * * * * * * * * * * * * //

dimensions      [1 0 -1 0 0 0 0];

oriented        oriented;

internalField   nonuniform List<scalar> 
23538
(
-9.071008474e-12
-1.11842933e-10
6.599694632e-11
-1.954716047e-10
1.581722087e-10
-2.113523221e-10
2.40430581e-10
-1.999520948e-10
3.037645947e-10
-1.789797005e-10
3.464202939e-10
-1.556617501e-10
3.686833731e-10
-1.320945554e-10
3.707004335e-10
-1.081851931e-10
3.520291744e-10
-8.337134029e-11
3.119038265e-10
-5.73457338e-11
2.496335111e-10
-3.021499696e-11
1.649227835e-10
-2.417256142e-12
5.807181436e-11
2.539904204e-11
-6.992051491e-11
5.248141906e-11
-2.173458326e-10
7.806457088e-11
-3.818214522e-10
1.014185137e-10
-5.603596124e-10
1.218850726e-10
-7.494693915e-10
1.389106723e-10
-9.452936191e-10
1.520864767e-10
-1.143795508e-09
1.611923577e-10
-1.340969576e-09
1.66227938e-10
-1.533070244e-09
1.674215427e-10
-1.716835642e-09
1.652339988e-10
-1.889698513e-09
1.603290693e-10
-2.049929621e-09
1.535235652e-10
-2.196705781e-09
1.456929397e-10
-2.330078184e-09
1.376822303e-10
-2.450829287e-09
1.301931756e-10
-2.56022336e-09
1.236772994e-10
-2.659668738e-09
1.182529352e-10
-2.75039513e-09
1.137201172e-10
-2.83313374e-09
1.09565852e-10
-2.907795011e-09
1.049715435e-10
-2.973267427e-09
9.893938357e-11
-3.027597218e-09
9.056115356e-11
-3.06798203e-09
7.907015578e-11
-3.091104955e-09
6.392786279e-11
-3.093461332e-09
4.492072465e-11
-3.071788688e-09
2.225032383e-11
-3.023438091e-09
-3.534536838e-12
-2.94669228e-09
-3.160393568e-11
-2.840989504e-09
-6.090384577e-11
-2.707031133e-09
-9.028912458e-11
-2.546736273e-09
-1.186591401e-10
-2.363031425e-09
-1.450951643e-10
-2.159593273e-09
-1.689213992e-10
-1.940554947e-09
-1.897027633e-10
-1.710233201e-09
-2.072316645e-10
-1.472912079e-09
-2.214810727e-10
-1.232679643e-09
-2.325360465e-10
-9.933022146e-10
-2.405592071e-10
-7.581922107e-10
-2.45727418e-10
-5.304051569e-10
-2.481921371e-10
-3.126401264e-10
-2.481004892e-10
-1.072490126e-10
-2.455816899e-10
8.375128617e-11
-2.407637139e-10
2.586529037e-10
-2.337791011e-10
4.160384916e-10
-2.247644321e-10
5.547767204e-10
-2.138598409e-10
6.739890729e-10
-2.012220642e-10
7.729673211e-10
-1.869868814e-10
8.511541504e-10
-1.712604591e-10
9.080758541e-10
-1.541172172e-10
9.432657961e-10
-1.356045392e-10
9.56245224e-10
-1.157423441e-10
9.4641147e-10
-9.449720649e-11
9.130944875e-10
-7.182940672e-11
8.55536287e-10
-4.769287419e-11
7.729168159e-10
-2.206573625e-11
6.644051615e-10
5.039147329e-12
5.29260032e-10
3.355241717e-11
3.669232536e-10
6.332140011e-11
1.771256669e-10
9.410339059e-11
-3.998947526e-11
1.255512458e-10
-2.837532507e-10
1.572079616e-10
-5.529793301e-10
1.886087805e-10
-8.460125227e-10
2.193123241e-10
-1.160888711e-09
2.490027725e-10
-1.495060183e-09
2.7704653e-10
-1.844953023e-09
3.023135112e-10
-2.205969142e-09
3.236273e-10
-2.572638041e-09
3.39917901e-10
-2.938711142e-09
3.501720417e-10
-3.297276245e-09
3.534689572e-10
-3.640887397e-09
3.49009796e-10
-3.961720347e-09
3.361525487e-10
-4.251755156e-09
3.14462882e-10
-4.503001885e-09
2.837649598e-10
-4.707773109e-09
2.44191758e-10
-4.859000713e-09
1.962313633e-10
-4.950548883e-09
1.407553597e-10
-4.977661261e-09
7.902873701e-11
-4.937139244e-09
1.27185415e-11
-4.827806988e-09
-5.615974997e-11
-4.650825793e-09
-1.252121451e-10
-4.41009851e-09
-1.916284717e-10
-4.111834013e-09
-2.530143197e-10
-3.763497693e-09
-3.080151781e-10
-3.373504432e-09
-3.555815535e-10
-2.951072726e-09
-3.947975249e-10
-2.505880667e-09
-4.250920994e-10
-2.047712274e-09
-4.462441097e-10
-1.586118487e-09
-4.583697232e-10
-1.13009562e-09
-4.619012695e-10
-6.878034485e-10
-4.575512709e-10
-2.66340848e-10
-4.462557839e-10
1.284013471e-10
-4.29101909e-10
4.918229979e-10
-4.072552372e-10
8.206180876e-10
-3.818933172e-10
1.112712633e-09
-3.541423087e-10
1.367150193e-09
-3.250264348e-10
1.583954032e-09
-2.95438761e-10
1.763960041e-09
-2.661291064e-10
1.908651521e-09
-2.376989091e-10
2.01998893e-09
-2.10599735e-10
2.100226666e-09
-1.851096975e-10
2.151756282e-09
-1.613649853e-10
2.177047328e-09
-1.394701804e-10
2.178583859e-09
-1.19477515e-10
2.15881454e-09
-1.013788288e-10
2.120090327e-09
-8.512626708e-11
2.064621898e-09
-7.063861884e-11
1.994465788e-09
-5.781105731e-11
1.911514227e-09
-4.652812335e-11
1.817498296e-09
-3.667964892e-11
1.714007143e-09
-2.817020171e-11
1.602515881e-09
-2.092998875e-11
1.484421212e-09
-1.491728899e-11
1.36107696e-09
-1.012017011e-11
1.233805965e-09
-6.538090404e-12
1.103889714e-09
-4.15306817e-12
9.725265346e-10
-2.896363081e-12
8.407508424e-10
-2.622835942e-12
7.093596689e-10
-3.111906955e-12
5.78952995e-10
-4.17027082e-12
4.50224968e-10
-5.900266795e-12
3.246875311e-10
-9.12318604e-12
2.058676209e-10
-1.585828919e-11
1.001207918e-10
-2.893939179e-11
-3.457320315e-11
-1.612771167e-12
-2.308226665e-10
1.023506715e-10
-4.19778628e-10
2.251068013e-10
-4.531953268e-10
3.221329833e-10
-4.143857113e-10
3.755549573e-10
-3.477071817e-10
3.80219277e-10
-2.730381485e-10
3.351917632e-10
-1.966722113e-10
2.399745732e-10
-1.189651599e-10
9.353943502e-11
-3.886122791e-11
-1.052812956e-10
4.405178211e-11
-3.570295866e-10
1.290021343e-10
-6.609381894e-10
2.142007313e-10
-1.014502161e-09
2.972136335e-10
-1.413308464e-09
3.753310165e-10
-1.851033647e-09
4.458208829e-10
-2.319550347e-09
5.061056781e-10
-2.809164027e-09
5.539106226e-10
-3.308935434e-09
5.874008727e-10
-3.807108644e-09
6.053135997e-10
-4.291613858e-09
6.07087067e-10
-4.750646991e-09
5.929574384e-10
-5.173286642e-09
5.640139233e-10
-5.550089359e-09
5.221678459e-10
-5.873608491e-09
4.700507727e-10
-6.138779952e-09
4.108273759e-10
-6.343091623e-09
3.478850854e-10
-6.486547714e-09
2.845375467e-10
-6.571368245e-09
2.236516501e-10
-6.601460096e-09
1.673132202e-10
-6.581721165e-09
1.165877076e-10
-6.517378145e-09
7.156601652e-11
-6.413339263e-09
3.138830567e-11
-6.273570802e-09
-5.714533588e-12
-6.100669233e-09
-4.202823034e-11
-5.896100745e-09
-7.970955432e-11
-5.660188086e-09
-1.205158397e-10
-5.392564841e-09
-1.656626247e-10
-5.092628355e-09
-2.155856574e-10
-4.760099485e-09
-2.697641076e-10
-4.395515908e-09
-3.26853175e-10
-4.000566538e-09
-3.849480457e-10
-3.578231742e-09
-4.41803911e-10
-3.132714919e-09
-4.951694088e-10
-2.669155322e-09
-5.431451749e-10
-2.193154926e-09
-5.844693148e-10
-1.710328428e-09
-6.185541103e-10
-1.225957908e-09
-6.453780007e-10
-7.447274491e-10
-6.653326895e-10
-2.70669106e-10
-6.790075471e-10
1.928074558e-10
-6.870311142e-10
6.427729569e-10
-6.899076575e-10
1.076596969e-09
-6.879463013e-10
1.491821717e-09
-6.812658553e-10
1.885970564e-09
-6.697912775e-10
2.256476329e-09
-6.533514287e-10
2.600692679e-09
-6.317707331e-10
2.915935293e-09
-6.04945152e-10
3.199525654e-09
-5.728671713e-10
3.448855191e-09
-5.35609664e-10
3.661451727e-09
-4.933151524e-10
3.834922037e-09
-4.461518381e-10
3.96690676e-09
-3.942349258e-10
4.055039527e-09
-3.376035139e-10
4.096830299e-09
-2.761935908e-10
4.089589792e-09
-2.098271973e-10
4.030275892e-09
-1.382484168e-10
3.915632645e-09
-6.119535784e-11
3.742179277e-09
2.155902498e-11
3.506322379e-09
1.101344014e-10
3.204509087e-09
2.044569594e-10
2.833469952e-09
3.041904447e-10
2.390499142e-09
4.086693008e-10
1.873732044e-09
5.168591833e-10
1.282429258e-09
6.273495611e-10
6.17244318e-10
7.383518736e-10
-1.19387684e-10
8.476655632e-10
-9.234115726e-10
9.53239684e-10
-1.789546267e-09
1.053501929e-09
-2.710498551e-09
1.145726942e-09
-3.676272843e-09
1.225951112e-09
-4.674248241e-09
1.290189147e-09
-5.689480458e-09
1.334825691e-09
-6.704993621e-09
1.356557525e-09
-7.702133727e-09
1.352513257e-09
-8.660976452e-09
1.320358837e-09
-9.560815207e-09
1.25841048e-09
-1.038072762e-08
1.165784339e-09
-1.1100223e-08
1.042547529e-09
-1.169996985e-08
8.89850544e-10
-1.216259028e-08
7.100316553e-10
-1.247347425e-08
5.066747846e-10
-1.262165363e-08
2.846251725e-10
-1.260039879e-08
4.988760871e-11
-1.240803081e-08
-1.904196412e-10
-1.204869482e-08
-4.280462413e-10
-1.153233811e-08
-6.542953136e-10
-1.087338643e-08
-8.622087262e-10
-1.008969851e-08
-1.046907379e-09
-9.201958776e-09
-1.204413637e-09
-8.232591191e-09
-1.331983013e-09
-7.204929954e-09
-1.4280329e-09
-6.142402091e-09
-1.492149771e-09
-5.067724905e-09
-1.525056482e-09
-4.002169485e-09
-1.528529107e-09
-2.964919979e-09
-1.505251508e-09
-1.972575951e-09
-1.458621827e-09
-1.038837697e-09
-1.392513643e-09
-1.743571494e-10
-1.311022412e-09
6.13241829e-10
-1.218230384e-09
1.31918824e-09
-1.118003629e-09
1.941269696e-09
-1.013830763e-09
2.479476324e-09
-9.087156054e-10
2.935604673e-09
-8.051349472e-10
3.312858358e-09
-7.05038731e-10
3.615462497e-09
-6.098677002e-10
3.848299639e-09
-5.205429646e-10
4.016610321e-09
-4.37547014e-10
4.125793473e-09
-3.611490536e-10
4.181224281e-09
-2.914226325e-10
4.188139924e-09
-2.282576963e-10
4.15155311e-09
-1.714159073e-10
4.076177237e-09
-1.205736084e-10
3.966396255e-09
-7.535565045e-11
3.826266038e-09
-3.536784652e-11
3.659522894e-09
-2.320731108e-13
3.469631417e-09
3.036964968e-11
3.259855718e-09
5.666383492e-11
3.033328799e-09
7.877889066e-11
2.793116462e-09
9.676531519e-11
2.542230141e-09
1.106453583e-10
2.28357398e-09
1.205116064e-10
2.019821825e-09
1.266490552e-10
1.75321447e-09
1.296247674e-10
1.485357233e-09
1.302739505e-10
1.217210077e-09
1.294273328e-10
9.495356146e-10
1.271656606e-10
6.842589632e-10
1.214996514e-10
4.270120949e-10
1.067046344e-10
1.903477919e-10
7.302492989e-11
2.108037622e-11
-8.214615139e-12
-3.424791991e-10
6.872314309e-11
-6.16248607e-10
1.481095879e-10
-6.510745848e-10
1.866058839e-10
-5.697552744e-10
1.654586689e-10
-4.41318298e-10
7.842167802e-11
-2.981717822e-10
-7.614201551e-11
-1.512135641e-10
-2.990294315e-10
-1.651323611e-12
-5.911358359e-10
1.516446781e-10
-9.529212349e-10
3.086140168e-10
-1.383474656e-09
4.670722648e-10
-1.879684512e-09
6.229851141e-10
-2.435722061e-09
7.711583075e-10
-3.042842748e-09
9.059206641e-10
-3.689448774e-09
1.02164831e-09
-4.3613656e-09
1.113149036e-09
-5.042276217e-09
1.175977972e-09
-5.714308753e-09
1.206722025e-09
-6.358761652e-09
1.203271108e-09
-6.956945616e-09
1.165062054e-09
-7.491109416e-09
1.093254748e-09
-7.945404265e-09
9.908188229e-10
-8.30677243e-09
8.624326003e-10
-8.565698801e-09
7.142289158e-10
-8.716750286e-09
5.534010079e-10
-8.75875996e-09
3.875334312e-10
-8.694734666e-09
2.240294761e-10
-8.531305445e-09
6.929057269e-11
-8.277893751e-09
-7.19047539e-11
-7.945661374e-09
-1.968386409e-10
-7.546498732e-09
-3.047597411e-10
-7.092038779e-09
-3.968346872e-10
-6.592750341e-09
-4.760149308e-10
-6.057344181e-09
-5.462652173e-10
-5.492934385e-09
-6.113687313e-10
-4.905070338e-09
-6.744883202e-10
-4.298233592e-09
-7.378115272e-10
-3.676293525e-09
-8.022659443e-10
-3.043028179e-09
-8.673442558e-10
-2.402564791e-09
-9.313018107e-10
-1.759619076e-09
-9.916530185e-10
-1.119562688e-09
-1.045577954e-09
-4.882068596e-10
-1.090507114e-09
1.287231429e-10
-1.124804107e-09
7.262424067e-10
-1.148129341e-09
1.300685772e-09
-1.161382113e-09
1.849974612e-09
-1.166283603e-09
2.373559484e-09
-1.164837955e-09
2.872185993e-09
-1.158954716e-09
3.347465771e-09
-1.15009761e-09
3.80135941e-09
-1.139019356e-09
4.23560294e-09
-1.125664232e-09
4.651229956e-09
-1.109251618e-09
5.048262579e-09
-1.08848518e-09
5.425571363e-09
-1.061829734e-09
5.780916002e-09
-1.027776702e-09
6.111124669e-09
-9.850577407e-10
6.412305511e-09
-9.327555267e-10
6.680061745e-09
-8.703035412e-10
6.909712229e-09
-7.973995997e-10
7.096394708e-09
-7.139159498e-10
7.235082828e-09
-6.197616496e-10
7.320572696e-09
-5.147663879e-10
7.347394974e-09
-3.985874629e-10
7.309764755e-09
-2.706978019e-10
7.201410745e-09
-1.304952301e-10
7.015744029e-09
2.266250771e-11
6.7458758e-09
1.892564167e-10
6.384806539e-09
3.695240931e-10
5.925686994e-09
5.632495214e-10
5.36217707e-09
7.696106569e-10
4.688881227e-09
9.870570246e-10
3.901793633e-09
1.213229739e-09
2.998728384e-09
1.444953154e-09
1.979700763e-09
1.678285685e-09
8.471445565e-10
1.908622035e-09
-3.936154229e-10
2.130995498e-09
-1.734629521e-09
2.34112692e-09
-3.164286387e-09
2.532497128e-09
-4.666658771e-09
2.696634365e-09
-6.221819656e-09
2.825316367e-09
-7.806304653e-09
2.911120725e-09
-9.393546209e-09
2.94735062e-09
-1.095444685e-08
2.92830812e-09
-1.245806411e-08
2.849540057e-09
-1.387242904e-08
2.708098954e-09
-1.516550457e-08
2.5028274e-09
-1.630624635e-08
2.234631984e-09
-1.72657402e-08
1.906700978e-09
-1.80183895e-08
1.524639774e-09
-1.85430878e-08
1.096515099e-09
-1.882440624e-08
6.328147105e-10
-1.885336532e-08
1.461709354e-10
-1.862848191e-08
-3.487430577e-10
-1.815679513e-08
-8.351032969e-10
-1.745310273e-08
-1.296374705e-09
-1.653850802e-08
-1.719202997e-09
-1.543935299e-08
-2.093390967e-09
-1.41857499e-08
-2.411116538e-09
-1.281039979e-08
-2.666972226e-09
-1.13473892e-08
-2.857929434e-09
-9.830961686e-09
-2.983343549e-09
-8.294329174e-09
-3.04489418e-09
-6.768567429e-09
-3.046413406e-09
-5.281665901e-09
-2.993585935e-09
-3.857778131e-09
-2.893538733e-09
-2.516742835e-09
-2.754350989e-09
-1.273869269e-09
-2.584533881e-09
-1.399805932e-10
-2.392534362e-09
8.783160357e-10
-2.186307895e-09
1.778171962e-09
-1.97298779e-09
2.559930593e-09
-1.75866988e-09
3.226509475e-09
-1.548310654e-09
3.782756182e-09
-1.345711539e-09
4.234968053e-09
-1.153700529e-09
4.590345433e-09
-9.740795208e-10
4.856486737e-09
-8.077117893e-10
5.041106352e-09
-6.54971135e-10
5.15178575e-09
-5.158261618e-10
5.195808289e-09
-3.899092896e-10
5.180062284e-09
-2.766222205e-10
5.11096927e-09
-1.752256539e-10
4.994457127e-09
-8.490622316e-11
4.835968986e-09
-4.843240223e-12
4.640505952e-09
6.572546166e-11
4.412714377e-09
1.274242414e-10
4.156974328e-09
1.806949648e-10
3.87748818e-09
2.257938191e-10
3.578358301e-09
2.628341592e-10
3.263603121e-09
2.918931627e-10
2.937067634e-09
3.132030955e-10
2.602239919e-09
3.273772695e-10
2.261984175e-09
3.355950825e-10
1.91826091e-09
3.395759644e-10
1.572113401e-09
3.410598504e-10
1.224277062e-09
3.404245633e-10
8.770543456e-10
3.340996848e-10
5.383351455e-10
3.107665272e-10
2.290113349e-10
2.476642616e-10
1.154017621e-10
-2.58541348e-11
-4.357488631e-10
5.646056303e-12
-7.663268192e-10
2.045624066e-11
-7.834598541e-10
-1.868077278e-11
-6.466271964e-10
-1.274066605e-10
-4.465245444e-10
-3.106124775e-10
-2.263428276e-10
-5.692478931e-10
-9.453518592e-13
-9.034490453e-10
2.276291786e-10
-1.313071527e-09
4.601998651e-10
-1.79694486e-09
6.956437472e-10
-2.351781807e-09
9.296221592e-10
-2.971291228e-09
1.155053732e-09
-3.645668019e-09
1.363192568e-09
-4.361462726e-09
1.544695303e-09
-5.10178797e-09
1.690475019e-09
-5.846785999e-09
1.792355867e-09
-6.574314079e-09
1.843607957e-09
-7.260829743e-09
1.839418489e-09
-7.882437219e-09
1.777334206e-09
-8.416069441e-09
1.657625684e-09
-8.840735348e-09
1.483532224e-09
-9.138796667e-09
1.261361107e-09
-9.297088842e-09
1.000230568e-09
-9.307798397e-09
7.115709412e-10
-9.169058423e-09
4.084331587e-10
-8.884975097e-09
1.042623179e-10
-8.465421257e-09
-1.879134433e-10
-7.924990865e-09
-4.571283836e-10
-7.281528896e-09
-6.955196157e-10
-6.554797196e-09
-8.986192512e-10
-5.765002948e-09
-1.065364184e-09
-4.931213702e-09
-1.198159499e-09
-4.070206136e-09
-1.302298973e-09
-3.195878971e-09
-1.38457463e-09
-2.319205587e-09
-1.45162998e-09
-1.44847894e-09
-1.509125438e-09
-5.903821429e-10
-1.560676846e-09
2.492538075e-10
-1.607760354e-09
1.064904065e-09
-1.649947279e-09
1.851208772e-09
-1.685463268e-09
2.602587354e-09
-1.711485919e-09
3.313061114e-09
-1.724788385e-09
3.976694025e-09
-1.722942053e-09
4.588437399e-09
-1.705403942e-09
5.145172566e-09
-1.674024004e-09
5.646496417e-09
-1.632692633e-09
6.094993221e-09
-1.586390308e-09
6.496027648e-09
-1.540116693e-09
6.857133762e-09
-1.498076377e-09
7.187111185e-09
-1.463052401e-09
7.49494304e-09
-1.43594465e-09
7.788691501e-09
-1.415675116e-09
8.074569507e-09
-1.39945077e-09
8.35635172e-09
-1.38332191e-09
8.635133522e-09
-1.362847065e-09
8.909402907e-09
-1.333687945e-09
9.175390512e-09
-1.292071827e-09
9.427548556e-09
-1.235061257e-09
9.659010123e-09
-1.160591336e-09
9.862048691e-09
-1.067333024e-09
1.002839784e-08
-9.544709914e-10
1.01494247e-08
-8.214476482e-10
1.021620112e-08
-6.677314725e-10
1.021946336e-08
-4.926033864e-10
1.014961689e-08
-2.951363858e-10
9.996583743e-09
-7.43627129e-11
9.749906757e-09
1.708273682e-10
9.398890917e-09
4.411578895e-10
8.932786126e-09
7.369448102e-10
8.341158373e-09
1.057698409e-09
7.6143492e-09
1.401869901e-09
6.74401962e-09
1.766653636e-09
5.723721257e-09
2.147869274e-09
4.549440246e-09
2.539953379e-09
3.22006846e-09
2.936066465e-09
1.737729244e-09
3.32834193e-09
1.078957905e-10
3.708366298e-09
-1.659900979e-09
4.06764829e-09
-3.549649074e-09
4.392960364e-09
-5.539632921e-09
4.669859871e-09
-7.603050945e-09
4.884719568e-09
-9.708378626e-09
5.0250599e-09
-1.181994488e-08
5.079713353e-09
-1.389871284e-08
5.039307566e-09
-1.590325805e-08
4.896738874e-09
-1.77909543e-08
4.647654471e-09
-1.951934057e-08
4.290917494e-09
-2.104760509e-08
3.82900262e-09
-2.23381236e-08
3.268263399e-09
-2.335798531e-08
2.619050723e-09
-2.408044531e-08
1.895664333e-09
-2.448636517e-08
1.116183016e-09
-2.456499558e-08
3.019419036e-10
-2.431525188e-08
-5.226803636e-10
-2.374674935e-08
-1.330093555e-09
-2.287890327e-08
-2.093872627e-09
-2.173872065e-08
-2.792998572e-09
-2.03595374e-08
-3.410887255e-09
-1.877961194e-08
-3.93475359e-09
-1.704073654e-08
-4.355628353e-09
-1.518673827e-08
-4.668428762e-09
-1.326189763e-08
-4.872035718e-09
-1.130936152e-08
-4.969232313e-09
-9.369642697e-09
-4.966446345e-09
-7.479300929e-09
-4.873261839e-09
-5.66988711e-09
-4.70173598e-09
-3.967234874e-09
-4.465570104e-09
-2.39112518e-09
-4.179218208e-09
-9.553190866e-10
-3.85702705e-09
3.320904475e-10
-3.512480935e-09
1.468052705e-09
-3.157621806e-09
2.453765437e-09
-2.802663595e-09
3.293792277e-09
-2.455812042e-09
3.995144055e-09
-2.123212671e-09
4.566652754e-09
-1.809423421e-09
5.018221392e-09
-1.517260071e-09
5.360094424e-09
-1.247894824e-09
5.602478143e-09
-1.001644541e-09
5.755236625e-09
-7.781340132e-10
5.827681776e-09
-5.764785629e-10
5.82847214e-09
-3.954604548e-10
5.765559878e-09
-2.336788946e-10
5.646180823e-09
-8.966875146e-11
5.476901069e-09
3.80079878e-11
5.26369085e-09
1.506436062e-10
5.012037094e-09
2.492853198e-10
4.727074074e-09
3.346766873e-10
4.413696008e-09
4.072584179e-10
4.076640089e-09
4.672479569e-10
3.7205133e-09
5.148222208e-10
3.349700132e-09
5.504000984e-10
2.968148675e-09
5.749968608e-10
2.579085624e-09
5.904948248e-10
2.184744677e-09
5.995822305e-10
1.786412816e-09
6.049323448e-10
1.385267965e-09
6.070252823e-10
9.847865162e-10
5.999816236e-10
5.95920023e-10
5.649967621e-10
2.466758659e-10
4.622432155e-10
2.274005215e-10
-4.298236727e-11
-5.1084093e-10
-5.328400818e-11
-8.734997063e-10
-9.553285822e-11
-8.576514469e-10
-2.003403582e-10
-6.567177616e-10
-3.790129275e-10
-3.807161252e-10
-6.337899625e-10
-8.192817829e-11
-9.638190127e-10
2.216584786e-10
-1.367581212e-09
5.27312337e-10
-1.842985174e-09
8.352467181e-10
-2.386399811e-09
1.14276441e-09
-2.991474229e-09
1.442771865e-09
-3.648234841e-09
1.724537232e-09
-4.342635901e-09
1.975217944e-09
-5.05655181e-09
2.181385646e-09
-5.768163071e-09
2.330265949e-09
-6.452656381e-09
2.410710421e-09
-7.083195233e-09
2.413997915e-09
-7.63211618e-09
2.334532429e-09
-8.072317293e-09
2.170462438e-09
-8.37876966e-09
1.924169133e-09
-8.530071296e-09
1.602538098e-09
-8.510020236e-09
1.217068734e-09
-8.308930488e-09
7.833566437e-10
-7.92448649e-09
3.201173879e-10
-7.362378285e-09
-1.517162733e-10
-6.636032766e-09
-6.11139688e-10
-5.765825258e-09
-1.038391991e-09
-4.778025926e-09
-1.416870007e-09
-3.702017156e-09
-1.735868335e-09
-2.567478129e-09
-1.990907821e-09
-1.402318165e-09
-2.182959288e-09
-2.311263999e-10
-2.317953676e-09
9.254800262e-10
-2.405303451e-09
2.05124393e-09
-2.456195623e-09
3.135078741e-09
-2.482347213e-09
4.170300953e-09
-2.493610603e-09
5.152085389e-09
-2.495282765e-09
6.076594068e-09
-2.489188789e-09
6.939957534e-09
-2.474449079e-09
7.737796877e-09
-2.448309683e-09
8.464908297e-09
-2.406740157e-09
9.115261185e-09
-2.345470687e-09
9.682616448e-09
-2.261827312e-09
1.016190377e-08
-2.156596637e-09
1.055101203e-08
-2.034913023e-09
1.085221353e-08
-1.905443911e-09
1.107266869e-08
-1.77850193e-09
1.122412283e-08
-1.66407054e-09
1.132197351e-08
-1.570312637e-09
1.13837947e-08
-1.502384636e-09
1.142751682e-08
-1.461614894e-09
1.146947678e-08
-1.445310182e-09
1.152279157e-08
-1.44734287e-09
1.159631199e-08
-1.459316683e-09
1.16942005e-08
-1.471864861e-09
1.181601813e-08
-1.475803368e-09
1.195725282e-08
-1.46304638e-09
1.211014842e-08
-1.42713299e-09
1.226454651e-08
-1.363359083e-09
1.24086737e-08
-1.26857383e-09
1.252978535e-08
-1.140795523e-09
1.261456371e-08
-9.787559786e-10
1.264934657e-08
-7.814575055e-10
1.262019384e-08
-5.478099962e-10
1.251290474e-08
-2.765666348e-10
1.231303389e-08
3.359885775e-11
1.20056666e-08
3.841204491e-10
1.157595387e-08
7.759173849e-10
1.100910545e-08
1.209239473e-09
1.029088478e-08
1.683122926e-09
9.408139052e-09
2.195016271e-09
8.349411465e-09
2.740490702e-09
7.105580903e-09
3.313083551e-09
5.670471633e-09
3.904302134e-09
4.041386856e-09
4.50377882e-09
2.219458763e-09
5.099699998e-09
2.095356882e-10
5.679736245e-09
-1.97710469e-09
6.228691239e-09
-4.319886164e-09
6.723706557e-09
-6.791267115e-09
7.142990713e-09
-9.357532516e-09
7.466343262e-09
-1.197891841e-08
7.674842334e-09
-1.461034035e-08
7.751649027e-09
-1.720242149e-08
7.682808444e-09
-1.97028432e-08
7.458056615e-09
-2.205797842e-08
7.071601158e-09
-2.42147288e-08
6.522786457e-09
-2.612246115e-08
5.816580568e-09
-2.773493861e-08
4.963820574e-09
-2.901215583e-08
3.981219544e-09
-2.992200671e-08
2.891135201e-09
-3.044192394e-08
1.721192051e-09
-3.055951947e-08
5.034088478e-10
-3.027414946e-08
-7.261288832e-10
-2.959806073e-08
-1.926840232e-09
-2.855482762e-08
-3.060886693e-09
-2.717650115e-08
-4.098721632e-09
-2.550273658e-08
-5.016140094e-09
-2.357949327e-08
-5.794065513e-09
-2.145752286e-08
-6.418767438e-09
-1.919061579e-08
-6.882172035e-09
-1.68336515e-08
-7.182117132e-09
-1.444056669e-08
-7.322366415e-09
-1.206237018e-08
-7.312294247e-09
-9.745348411e-09
-7.16620419e-09
-7.529584975e-09
-6.902320867e-09
-5.447905575e-09
-6.5415316e-09
-3.525323071e-09
-6.10600401e-09
-1.778990358e-09
-5.617825598e-09
-2.186102208e-10
-5.097780538e-09
1.152761027e-09
-4.564397913e-09
2.33764271e-09
-4.03330947e-09
3.3429185e-09
-3.516926438e-09
4.178546102e-09
-3.024330042e-09
4.856742982e-09
-2.562210542e-09
5.390971805e-09
-2.134532781e-09
5.794908623e-09
-1.742618062e-09
6.081910141e-09
-1.386415438e-09
6.264645314e-09
-1.064845123e-09
6.354858318e-09
-7.761126442e-10
6.363263041e-09
-5.179964542e-10
6.299517918e-09
-2.880809879e-10
6.17225756e-09
-8.393462812e-11
5.989176371e-09
9.675924861e-11
5.757155158e-09
2.560354949e-10
5.48242179e-09
3.955278008e-10
5.170713513e-09
5.164066865e-10
4.827430902e-09
6.193929958e-10
4.457745821e-09
7.048739077e-10
4.066637453e-09
7.731670909e-10
3.658824611e-09
8.249154471e-10
3.238567145e-09
8.615547934e-10
2.809402539e-09
8.856646662e-10
2.373931025e-09
9.008433284e-10
1.933968863e-09
9.105253718e-10
1.491599329e-09
9.149120164e-10
1.051959344e-09
9.050612568e-10
6.289890874e-10
8.533585183e-10
2.555805116e-10
7.010103032e-10
3.483246651e-10
-5.417899094e-11
-5.734092543e-10
-9.161273767e-11
-9.522486336e-10
-1.696296214e-10
-8.947627635e-10
-3.133018987e-10
-6.266418823e-10
-5.29771907e-10
-2.758500694e-10
-8.181683762e-10
9.730255846e-11
-1.175049509e-09
4.722280618e-10
-1.59636304e-09
8.455531621e-10
-2.077255987e-09
1.21666182e-09
-2.610944545e-09
1.580896883e-09
-3.187481905e-09
1.92798071e-09
-3.792885539e-09
2.243134406e-09
-4.408773193e-09
2.509127492e-09
-5.012513114e-09
2.70830785e-09
-5.577810577e-09
2.824286857e-09
-6.075658959e-09
2.843276513e-09
-6.475612537e-09
2.755197441e-09
-6.747320098e-09
2.554637956e-09
-6.862263326e-09
2.241664321e-09
-6.795582889e-09
1.82238666e-09
-6.528002915e-09
1.309312389e-09
-6.047686222e-09
7.213806734e-10
-5.351849063e-09
8.318716303e-11
-4.447416024e-09
-5.769528758e-10
-3.351300567e-09
-1.228291962e-09
-2.091878328e-09
-1.838600664e-09
-7.05893115e-10
-2.380055041e-09
7.669237792e-10
-2.833426338e-09
2.286067842e-09
-3.187644881e-09
3.812308173e-09
-3.439953534e-09
5.310922736e-09
-3.596287143e-09
6.753406963e-09
-3.669212784e-09
8.118474924e-09
-3.675715921e-09
9.392692342e-09
-3.635062283e-09
1.05700232e-08
-3.566421317e-09
1.165007765e-08
-3.485049036e-09
1.263435079e-08
-3.39817621e-09
1.352442928e-08
-3.306692789e-09
1.432040102e-08
-3.207527583e-09
1.502045392e-08
-3.095110942e-09
1.562045973e-08
-2.962235184e-09
1.611377707e-08
-2.801438217e-09
1.649217688e-08
-2.608053994e-09
1.674814317e-08
-2.383520181e-09
1.687804953e-08
-2.137124341e-09
1.68847444e-08
-1.884508506e-09
1.677855573e-08
-1.644108036e-09
1.657734908e-08
-1.434112291e-09
1.63054778e-08
-1.269757143e-09
1.599126278e-08
-1.1606171e-09
1.566401324e-08
-1.109277514e-09
1.535094895e-08
-1.111077437e-09
1.50746378e-08
-1.15521972e-09
1.485106607e-08
-1.226614742e-09
1.468879871e-08
-1.308277558e-09
1.458917109e-08
-1.383531438e-09
1.454701724e-08
-1.437535807e-09
1.455189745e-08
-1.458267028e-09
1.458946579e-08
-1.436837469e-09
1.464274891e-08
-1.367201505e-09
1.469322413e-08
-1.245575893e-09
1.47215749e-08
-1.069695905e-09
1.4708137e-08
-8.380393236e-10
1.463315679e-08
-5.492672292e-10
1.447686993e-08
-2.020032126e-10
1.421959069e-08
2.052440472e-10
1.384129385e-08
6.74015025e-10
1.332243089e-08
1.205211794e-09
1.264376688e-08
1.798774709e-09
1.178693524e-08
2.452987522e-09
1.07349952e-08
3.163976306e-09
9.473058278e-09
3.925327171e-09
7.988937963e-09
4.727896516e-09
6.273756852e-09
5.559824655e-09
4.322480685e-09
6.406754276e-09
2.134292139e-09
7.252401533e-09
-2.872445236e-10
8.079708909e-09
-2.927450752e-09
8.861944258e-09
-5.760573211e-09
9.564693281e-09
-8.753182009e-09
1.015799047e-08
-1.186390329e-08
1.061321196e-08
-1.504365e-08
1.090330132e-08
-1.823659752e-08
1.100434536e-08
-2.138160468e-08
1.089684432e-08
-2.441409489e-08
1.056698459e-08
-2.726827131e-08
1.000775003e-08
-2.987951215e-08
9.219755322e-09
-3.218679015e-08
8.211734645e-09
-3.413497129e-08
7.000645528e-09
-3.567689708e-08
5.611430255e-09
-3.677519441e-08
4.076486754e-09
-3.740403926e-08
2.435005143e-09
-3.754951085e-08
7.316447639e-10
-3.721151284e-08
-9.838568262e-10
-3.64047075e-08
-2.656027855e-09
-3.515617468e-08
-4.234539156e-09
-3.350230405e-08
-5.680518209e-09
-3.14886984e-08
-6.960586594e-09
-2.916906181e-08
-8.047652229e-09
-2.660362308e-08
-8.921572603e-09
-2.385712604e-08
-9.56989146e-09
-2.099647967e-08
-9.98841723e-09
-1.808820979e-08
-1.018141738e-08
-1.519588871e-08
-1.016132102e-08
-1.23777229e-08
-9.947862146e-09
-9.68448833e-09
-9.566723238e-09
-7.157964502e-09
-9.047756026e-09
-4.830011124e-09
-8.422976077e-09
-2.722322371e-09
-7.724518456e-09
-8.468415262e-10
-6.982761013e-09
7.932579281e-10
-6.224821757e-09
2.202177237e-09
-5.473509213e-09
3.389848771e-09
-4.746767383e-09
4.370140812e-09
-4.05742151e-09
5.159771293e-09
-3.414836711e-09
5.777003058e-09
-2.824375944e-09
6.240104934e-09
-2.287255067e-09
6.566617377e-09
-1.802615383e-09
6.772897081e-09
-1.368139275e-09
6.873843128e-09
-9.805607732e-10
6.882789781e-09
-6.361103864e-10
6.81152283e-09
-3.308558376e-10
6.670370793e-09
-6.095724883e-11
6.468347742e-09
1.771523507e-10
6.213353849e-09
3.865514171e-10
5.91239415e-09
5.696901104e-10
5.571796437e-09
7.28341928e-10
5.197409547e-09
8.636369053e-10
4.794759499e-09
9.762262111e-10
4.369112407e-09
1.066622297e-09
3.925446567e-09
1.13570796e-09
3.468293412e-09
1.185319964e-09
3.001525494e-09
1.218661051e-09
2.528224825e-09
1.240093346e-09
2.050941722e-09
1.253555079e-09
1.572903078e-09
1.258551496e-09
1.100998849e-09
1.242464417e-09
6.517034272e-10
1.168086377e-09
2.611183388e-10
9.569854228e-10
4.748148134e-10
-5.794113747e-11
-6.30706915e-10
-1.044109965e-10
-1.020489526e-09
-1.923864753e-10
-9.20447944e-10
-3.431385462e-10
-5.880366983e-10
-5.604276185e-10
-1.687556574e-10
-8.40263012e-10
2.693190536e-10
-1.176131465e-09
7.030507597e-10
-1.560776355e-09
1.128301867e-09
-1.985893411e-09
1.543386908e-09
-2.440941214e-09
1.941400344e-09
-2.911916211e-09
2.308606695e-09
-3.380537511e-09
2.625975181e-09
-3.823997917e-09
2.871797331e-09
-4.215273137e-09
3.024284035e-09
-4.523912061e-09
3.063729106e-09
-4.717255837e-09
2.974262323e-09
-4.762016758e-09
2.745316901e-09
-4.626190992e-09
2.372906386e-09
-4.281199929e-09
1.860649482e-09
-3.703968437e-09
1.220254524e-09
-2.87946728e-09
4.723306825e-10
-1.802895599e-09
-3.5395996e-10
-4.810988141e-10
-1.222437696e-09
1.063598036e-09
-2.089441315e-09
2.793114229e-09
-2.908676893e-09
4.66037253e-09
-3.639194214e-09
6.614277839e-09
-4.249509727e-09
8.600788781e-09
-4.717891484e-09
1.056682399e-08
-5.034755574e-09
1.246415491e-08
-5.202810004e-09
1.425220238e-08
-5.236330514e-09
1.590049689e-08
-5.158721372e-09
1.738999843e-08
-4.99911275e-09
1.871371524e-08
-4.789464621e-09
1.987587108e-08
-4.560613335e-09
2.088890905e-08
-4.335970706e-09
2.176653869e-08
-4.124578628e-09
2.251976007e-08
-3.923432389e-09
2.31551429e-08
-3.724056091e-09
2.367476464e-08
-3.514881352e-09
2.40755233e-08
-3.281895145e-09
2.434844114e-08
-3.010242386e-09
2.447999861e-08
-2.689516938e-09
2.445583701e-08
-2.319631445e-09
2.426623368e-08
-1.914415606e-09
2.391070078e-08
-1.499177683e-09
2.340003479e-08
-1.104474118e-09
2.275687312e-08
-7.613620817e-10
2.201561523e-08