/*--------------------------------*- C++ -*----------------------------------*\
| =========                 |                                                 |
| \\      /  F ield         | OpenFOAM: The Open Source CFD Toolbox           |
|  \\    /   O peration     | Version:  2412                                  |
|   \\  /    A nd           | Website:  www.openfoam.com                      |
|    \\/     M anipulation  |                                                 |
\*---------------------------------------------------------------------------*/
FoamFile
{
    version     2.0;
    format      ascii;
    arch        "LSB;label=32;scalar=64";
    class       volScalarField;
    location    "0.05";
    object      rho;
}
// * * * * * * * * * * * * * * * * * * * * * * * * * * * * * * * * * * * * * //

dimensions      [1 -3 0 0 0 0 0];

internalField   nonuniform List<scalar> 
12008
(
1.461751468
1.461708734
1.461623479
1.461492622
1.46131286
1.461079976
1.460789015
1.460434497
1.46001067
1.459511818
1.458932599
1.458268427
1.457515868
1.456673027
1.455739918
1.454718771
1.453614269
1.452433691
1.45118694
1.449886459
1.448547035
1.447185498
1.445820327
1.444471202
1.443158505
1.441902808
1.440724364
1.439642629
1.438675812
1.437840491
1.437151267
1.436620494
1.436258082
1.436072418
1.436065378
1.436239493
1.43659334
1.437122322
1.437818641
1.438671364
1.439666554
1.440787489
1.442014995
1.443327886
1.444703519
1.446118452
1.447549148
1.448972705
1.450367535
1.451713976
1.452994779
1.454195456
1.455304469
1.456313274
1.457216228
1.458010385
1.458695203
1.459272197
1.459744562
1.460116799
1.460394358
1.460583323
1.460690151
1.46072147
1.460683941
1.460583885
1.460427533
1.460221037
1.459970233
1.459680599
1.459357198
1.459004614
1.458626882
1.458227443
1.457809135
1.457374256
1.456924684
1.456462094
1.455988228
1.45550522
1.455015927
1.454524229
1.45403525
1.453555469
1.453092687
1.452655846
1.452254711
1.451899441
1.451600086
1.451366065
1.451205728
1.45112674
1.45113125
1.451222587
1.451400828
1.451663655
1.452006371
1.45242216
1.452902437
1.45343716
1.454015251
1.454625023
1.455254609
1.455892365
1.456527245
1.457149116
1.457749029
1.458319415
1.458854206
1.459348891
1.459800498
1.46020751
1.460569737
1.460888136
1.461164614
1.461401818
1.461602921
1.461771424
1.461910979
1.462025236
1.462117718
1.462191732
1.462250304
1.462296142
1.462331617
1.46235877
1.462379325
1.462394715
1.462406109
1.462414452
1.462420491
1.462424814
1.462427873
1.462430014
1.462431499
1.462432523
1.462433234
1.462433745
1.462434138
1.462434435
1.461719075
1.461674695
1.461585952
1.461449792
1.461262801
1.461020631
1.460718181
1.460349816
1.45990963
1.459391753
1.458790708
1.458101794
1.457321501
1.456447905
1.455481043
1.454423232
1.453279308
1.452056764
1.450765785
1.449419155
1.44803206
1.446621776
1.445207275
1.443808764
1.442447181
1.441143666
1.439919043
1.438793317
1.437785213
1.436911759
1.436187936
1.435626374
1.435237107
1.435029318
1.435004158
1.435164518
1.435509278
1.436034062
1.436731344
1.437590512
1.438597972
1.439737325
1.440989628
1.442333775
1.443747007
1.445205531
1.446685226
1.448162385
1.449614445
1.451020646
1.452362571
1.453624552
1.454793906
1.455861024
1.45681931
1.457665004
1.458396904
1.459016031
1.459525251
1.459928899
1.460232405
1.460441966
1.460564256
1.460606193
1.460574954
1.460477137
1.460319139
1.460107595
1.459848583
1.459547721
1.459210098
1.458840197
1.458441827
1.458018103
1.457571474
1.457103828
1.45661669
1.4561115
1.455589957
1.455054396
1.454508165
1.45395594
1.453403932
1.452859955
1.452333326
1.451834603
1.451375169
1.450966722
1.450620684
1.450347614
1.450156633
1.450057152
1.450050062
1.450139248
1.450324808
1.450604084
1.450971833
1.451420542
1.451940731
1.452521398
1.453150446
1.453815135
1.45450253
1.455199926
1.455895237
1.456577348
1.457236396
1.45786399
1.45845335
1.45899938
1.459498655
1.459949343
1.460351071
1.46070474
1.461012313
1.461276591
1.461500974
1.46168925
1.461845396
1.461973406
1.462077152
1.462160283
1.462226147
1.462277749
1.462317728
1.462348359
1.46237157
1.462388964
1.462401854
1.462411299
1.462418143
1.462423045
1.462426515
1.462428944
1.462430625
1.462431777
1.462432564
1.462433114
1.462433563
1.462434169
1.461655789
1.461607989
1.461512393
1.4613658
1.461164596
1.460904196
1.460579234
1.460183798
1.459711701
1.459156803
1.458513381
1.457776538
1.45694262
1.456009636
1.454977645
1.45384908
1.452628993
1.451325199
1.449948308
1.44851164
1.447031024
1.445524498
1.444011914
1.442514476
1.44105423
1.439653517
1.438334422
1.437118226
1.436024896
1.435072605
1.434277329
1.433652495
1.433208709
1.432955262
1.432894281
1.433027948
1.433355624
1.433873303
1.434573775
1.435446863
1.436479511
1.437655868
1.438957424
1.440363261
1.441850448
1.443394584
1.444970484
1.44655295
1.448117563
1.44964144
1.451103891
1.452486926
1.453775603
1.45495819
1.456026186
1.456974186
1.457799647
1.458502572
1.459085142
1.459551325
1.45990649
1.460157035
1.460310057
1.460373063
1.460353968
1.460260445
1.460098871
1.459876889
1.459601043
1.459277215
1.458910508
1.45850516
1.458064492
1.457590929
1.457086111
1.456551113
1.455986772
1.45539411
1.454774816
1.454131733
1.453469306
1.452793911
1.452114028
1.451440206
1.450784821
1.450161645
1.449585253
1.449070338
1.448630984
1.448279967
1.448028109
1.447886744
1.447856958
1.447941643
1.448141623
1.448453594
1.448871249
1.449385674
1.449985748
1.450658618
1.451390191
1.452165631
1.452969853
1.453787997
1.454605867
1.455410326
1.456189628
1.456933683
1.45763424
1.458284984
1.458881546
1.459421431
1.459903879
1.460329664
1.460700853
1.461020547
1.461292607
1.461521401
1.461711563
1.461867785
1.461994653
1.462096508
1.462177359
1.462240814
1.462290061
1.462327855
1.462356538
1.462378064
1.46239404
1.462405764
1.462414269
1.462420369
1.462424692
1.462427718
1.462429809
1.462431231
1.462432179
1.462432791
1.462433203
1.462433847
1.461561038
1.461508227
1.461402573
1.461240673
1.461018645
1.460731583
1.46037377
1.459938923
1.45942048
1.458811938
1.45810724
1.457301198
1.456389933
1.455371307
1.454245317
1.453014436
1.451683863
1.450261681
1.448758902
1.447189406
1.445569769
1.443919
1.442258173
1.440609994
1.438998288
1.437447433
1.435981754
1.434624886
1.433399146
1.432324926
1.431420149
1.430699806
1.430175603
1.429856564
1.429746318
1.429845893
1.430154228
1.430667639
1.43137854
1.4322768
1.433349748
1.434582148
1.435956154
1.437451325
1.439044806
1.440711699
1.442425656
1.444159641
1.445886798
1.447581336
1.449219351
1.450779501
1.45224351
1.453596473
1.454826985
1.455927097
1.45689215
1.457720503
1.458413181
1.458973487
1.459406584
1.459719084
1.459918647
1.460013618
1.46001274
1.459925692
1.459758544
1.459520386
1.459218426
1.458858862
1.458446731
1.457985801
1.457478563
1.45692633
1.456329495
1.455687932
1.455001546
1.454270908
1.453497939
1.452686546
1.451843149
1.450977006
1.450100281
1.449227834
1.448376742
1.447565598
1.446813661
1.44613993
1.445562246
1.445096458
1.444755714
1.444553484
1.444492137
1.444571831
1.444794909
1.445157088
1.445650514
1.446264273
1.446984885
1.447796847
1.448683191
1.449626042
1.450607177
1.451608554
1.452612824
1.453603801
1.454566873
1.455489334
1.45636064
1.457172554
1.457919194
1.458596982
1.459204491
1.459742235
1.460212379
1.460618436
1.460964932
1.461257093
1.461500539
1.461701028
1.46186423
1.461995553
1.462100021
1.462182183
1.462246075
1.462295201
1.462332552
1.462360633
1.462381509
1.462396853
1.462408004
1.462416013
1.462421697
1.462425679
1.46242843
1.462430295
1.462431525
1.462432298
1.46243278
1.462433464
1.46143524
1.461375943
1.461257265
1.461075559
1.460826621
1.460505168
1.460105064
1.459619585
1.459041717
1.458364507
1.45758146
1.45668698
1.455676816
1.454548507
1.453301788
1.45193894
1.450465058
1.448888241
1.447219682
1.445473671
1.443667502
1.441821291
1.439957698
1.438101551
1.436279361
1.434518728
1.432847643
1.431293701
1.429883255
1.428640556
1.427586939
1.426740094
1.426113519
1.425716268
1.425552394
1.425621413
1.425919484
1.426443598
1.427183116
1.428126705
1.429261253
1.430571831
1.432041436
1.433650662
1.435377485
1.437197269
1.439083089
1.441006376
1.4429378
1.444848301
1.446710118
1.448497709
1.450188477
1.451763292
1.453206784
1.45450745
1.455657595
1.456653138
1.457493312
1.458180282
1.458718718
1.459115317
1.45937833
1.459517064
1.45954142
1.459463093
1.4592886
1.459028118
1.458689813
1.458280152
1.457803898
1.457264012
1.456661709
1.455996713
1.455267734
1.454473154
1.453611882
1.452684288
1.451693128
1.450644345
1.449547657
1.448416793
1.447269361
1.446126342
1.445011257
1.443949097
1.442965133
1.442083722
1.441327204
1.440714971
1.440262727
1.439986323
1.43988939
1.439967828
1.440226188
1.44065877
1.44125567
1.442003432
1.442885632
1.443883496
1.444976512
1.446143041
1.447360922
1.448608078
1.449863102
1.451105816
1.452317791
1.453482782
1.454587078
1.455619736
1.456572691
1.457440739
1.458221398
1.458914671
1.459522726
1.460049516
1.460500378
1.460881632
1.461200197
1.461463248
1.461677922
1.461851087
1.461989161
1.462097997
1.462182811
1.462248157
1.462297936
1.46233543
1.462363353
1.462383914
1.46239888
1.462409648
1.462417302
1.462422673
1.462426386
1.462428904
1.462430563
1.462431601
1.46243223
1.462432982
1.461278999
1.461211878
1.461077488
1.460871904
1.460590569
1.460227775
1.459776919
1.459230774
1.458581791
1.457822458
1.4569457
1.455945316
1.454816433
1.453555952
1.452162959
1.450639095
1.448988865
1.447219889
1.445343084
1.443372802
1.441326881
1.439226639
1.437096741
1.434964952
1.432861705
1.430819479
1.428871965
1.427053043
1.425395597
1.42393024
1.42268401
1.421679148
1.420932073
1.420452728
1.420244333
1.420302827
1.42061904
1.421189932
1.421996915
1.42302458
1.424257144
1.425678693
1.427272805
1.429021786
1.430905786
1.432902102
1.434984879
1.437125347
1.439292568
1.44145456
1.443579576
1.445637348
1.447600146
1.449443602
1.451147269
1.452694953
1.454074827
1.455279368
1.456305157
1.457152539
1.457825189
1.45832959
1.45867445
1.458870067
1.458927689
1.458860642
1.458677301
1.458387701
1.458001409
1.457524942
1.456962427
1.456315531
1.455583651
1.454764416
1.453854501
1.452850708
1.451751231
1.45055695
1.449272609
1.447907776
1.446477373
1.445001706
1.443505973
1.442019295
1.440573399
1.43920108
1.437934621
1.436804321
1.435837231
1.435056181
1.434479097
1.434124569
1.433995464
1.434082857
1.434393779
1.434920513
1.435650584
1.436567545
1.437651656
1.438880525
1.440229748
1.441673524
1.443185292
1.444738375
1.446306643
1.447865173
1.449390881
1.450863099
1.452264056
1.453579241
1.454797611
1.455911651
1.456917269
1.457813558
1.458602433
1.459288194
1.459877031
1.46037652
1.460795133
1.46114179
1.461425473
1.461654902
1.461838295
1.461983197
1.462096371
1.462183755
1.462250458
1.462300797
1.462338357
1.462366062
1.462386265
1.462400827
1.462411195
1.462418484
1.462423532
1.462426962
1.462429227
1.462430651
1.462431505
1.46243236
1.461093169
1.461017034
1.460864541
1.460631471
1.460312884
1.459902612
1.459393532
1.458777838
1.458047335
1.457193787
1.456209303
1.45508676
1.453820244
1.452405486
1.450840287
1.449124917
1.447262499
1.445259369
1.44312544
1.440874547
1.438524764
1.436098662
1.433623435
1.43113084
1.428656858
1.42624105
1.42392555
1.421753711
1.419768466
1.418010448
1.416515968
1.41531496
1.414429128
1.41387056
1.413641151
1.413729706
1.414121494
1.41480786
1.415755937
1.416940597
1.418338509
1.419929293
1.421695414
1.423621024
1.425690163
1.4278848
1.430183268
1.432559501
1.434983255
1.437421149
1.439838201
1.442199484
1.444471667
1.446624291
1.44863073
1.45046886
1.452121443
1.453576293
1.454826227
1.455868825
1.456706024
1.45734356
1.45779027
1.45805729
1.458157177
1.458104583
1.457910669
1.457584161
1.457136178
1.456572891
1.455897244
1.455108981
1.454205079
1.453180628
1.452030133
1.450749125
1.44933592
1.447793299
1.446129935
1.444361378
1.442510367
1.440606428
1.438684804
1.436784844
1.434948052
1.43321602
1.431628449
1.430221459
1.429026263
1.428068277
1.427366597
1.426943206
1.426794964
1.426909894
1.427296792
1.427945151
1.428839412
1.429959877
1.431283401
1.432784008
1.434433473
1.436201896
1.438058296
1.439971265
1.44190966
1.443843356
1.445744
1.44758574
1.44934589
1.451005454
1.452549505
1.453967362
1.455252572
1.456402705
1.457418974
1.458305742
1.459069933
1.459720412
1.46026737
1.460721738
1.461094678
1.461397152
1.461639586
1.461831628
1.461981983
1.462098343
1.462187357
1.462254673
1.462304998
1.46234219
1.462369361
1.46238898
1.462402976
1.462412834
1.462419675
1.462424336
1.462427426
1.462429379
1.462430546
1.462431546
1.460878925
1.460792736
1.460620057
1.460356364
1.459996301
1.4595332
1.458959342
1.458266221
1.457444814
1.456485892
1.455380367
1.454119685
1.452696225
1.451103732
1.449337753
1.447396102
1.445279359
1.442991439
1.440540223
1.437938245
1.435203397
1.432359577
1.429437173
1.426473253
1.423511368
1.420600874
1.417795712
1.415152685
1.412729278
1.410581072
1.408758818
1.4073052
1.406251615
1.405615447
1.405398538
1.40557641
1.406136493
1.407050654
1.408264471
1.409733556
1.411417839
1.413284846
1.415310854
1.417479924
1.419781137
1.422204741
1.424738193
1.427363284
1.430054992
1.432781991
1.435508293
1.438195421
1.440804636
1.443298892
1.445644418
1.447811893
1.449777262
1.45152223
1.453034475
1.454307586
1.455340735
1.456138106
1.456708087
1.457062259
1.457214223
1.457179508
1.456972714
1.456599844
1.456073493
1.455398856
1.454576954
1.453604878
1.452476616
1.451184502
1.449721177
1.44808186
1.446266653
1.444282585
1.442145177
1.439879219
1.437518571
1.435105039
1.432686467
1.430314281
1.42804081
1.425916667
1.42398847
1.422297064
1.420876323
1.41975253
1.418944164
1.41847763
1.418334064
1.418504667
1.418997294
1.419797768
1.420887072
1.422242256
1.42383705
1.425642367
1.427626742
1.429756766
1.431997577
1.434313433
1.436668395
1.439027116
1.4413557
1.4436226
1.445799477
1.447861962
1.449790251
1.45156948
1.45318987
1.454646602
1.455939483
1.457072405
1.458052687
1.458890332
1.459597257
1.460186562
1.460671853
1.461066681
1.461384072
1.461636191
1.461834103
1.461987647
1.462105382
1.462194615
1.462261466
1.462310971
1.462347207
1.462373422
1.462392159
1.462405382
1.462414579
1.462420863
1.462425043
1.462427702
1.462429287
1.462430481
1.460637817
1.46054068
1.460346029
1.460049016
1.459643836
1.459123236
1.458478778
1.457701053
1.456779906
1.455704681
1.454464503
1.453048604
1.451446681
1.449649313
1.447648439
1.445437934
1.443014324
1.440377656
1.437532548
1.434489361
1.431265431
1.427886221
1.424386225
1.420809453
1.41720933
1.413647943
1.410194599
1.40692374
1.403912309
1.401236574
1.398968318
1.397170244
1.395890807
1.395159284
1.394982608
1.395315387
1.39616606
1.397466854
1.399133627
1.401088776
1.40326037
1.405589538
1.408034818
1.4105731
1.413196843
1.415907867
1.418709471
1.421599463
1.42456591
1.427585991
1.430627327
1.43365073
1.43661339
1.439471878
1.442184665
1.444714087
1.447027803
1.449099797
1.450910989
1.452449456
1.453710266
1.454694942
1.455410539
1.455868401
1.45608263
1.456068923
1.455845678
1.455414417
1.454788869
1.453972368
1.452963121
1.451754827
1.450338136
1.448702887
1.44684091
1.444749052
1.442431999
1.439904583
1.437193205
1.434336015
1.431381817
1.42838787
1.425416855
1.422533442
1.419800842
1.417277761
1.415016
1.413058845
1.411440265
1.410184853
1.409308542
1.408842186
1.408737657
1.409001707
1.409635255
1.410619763
1.411932658
1.413548082
1.415437325
1.417569109
1.419909802
1.422423631
1.42507297
1.427818752
1.430621048
1.433439825
1.436235859
1.438971771
1.441613099
1.44412933
1.446494789
1.448689306
1.450698596
1.452514331
1.454133899
1.455559893
1.456799398
1.457863142
1.458764572
1.459518935
1.460142428
1.460651445
1.461061961
1.461389049
1.46164655
1.461846863
1.462000852
1.462117841
1.462205684
1.462270874
1.46231869
1.46235335
1.462378173
1.462395727
1.462407964
1.462416347
1.462421943
1.462425519
1.462427649
1.462429098
1.460371795
1.460262946
1.46004479
1.459712131
1.459258637
1.458676339
1.457955858
1.457086549
1.456056647
1.454853406
1.45346329
1.451872207
1.450065822
1.448029981
1.445751279
1.443217845
1.440420392
1.437353557
1.434017528
1.430419863
1.42657736
1.42251777
1.418281083
1.413920169
1.40950065
1.405099945
1.400805553
1.396712736
1.392921751
1.3895346
1.386650886
1.384362131
1.382744429
1.381850348
1.381703612
1.382234726
1.38349876
1.385374968
1.387739455
1.390464167
1.393424112
1.396511017
1.399643641
1.402774445
1.405890042
1.409003734
1.412142128
1.415330744
1.418583203
1.421896096
1.425248955
1.428607449
1.43192791
1.435161914
1.438260246
1.441176084
1.443867415
1.446298805
1.448442594
1.450279555
1.451798997
1.452998327
1.453882041
1.454460215
1.45474655
1.454755971
1.454510379
1.454005011
1.453253837
1.452257301
1.451009832
1.449501188
1.447718825
1.445651179
1.443291461
1.440641419
1.437714563
1.434538446
1.431155427
1.427621752
1.424005097
1.420380911
1.416828056
1.413424339
1.410242448
1.407346727
1.404790994
1.40261744
1.400856482
1.399527322
1.39864599
1.398236114
1.398215125
1.398618576
1.399431549
1.40063113
1.402191506
1.404084603
1.406280289
1.408746381
1.411448558
1.414350288
1.417412827
1.420595377
1.423855455
1.427149513
1.430433814
1.433665536
1.436804038
1.439812172
1.442657529
1.445313484
1.447759937
1.449983679
1.451978373
1.45374414
1.455286864
1.456617267
1.45774984
1.458701732
1.459491681
1.460139053
1.460663016
1.461081896
1.461412696
1.461670787
1.461869739
1.46202128
1.462135343
1.462220186
1.462282553
1.462327857
1.46236037
1.46238341
1.462399508
1.462410561
1.462417964
1.462422714
1.462425544
1.462427318
1.460083198
1.459961958
1.459718938
1.459348533
1.458843752
1.458195683
1.457393647
1.456425254
1.455276408
1.45393133
1.452372615
1.450581378
1.448537536
1.446220294
1.443608919
1.440683875
1.437428395
1.433830495
1.42988536
1.425597952
1.42098555
1.416079881
1.410928537
1.40559546
1.400160416
1.394717564
1.389373362
1.384244212
1.379454165
1.375132621
1.371411166
1.368418009
1.366269235
1.36505711
1.364842833
1.365545586
1.367284993
1.369908296
1.373236702
1.377075233
1.381222164
1.385489135
1.389719451
1.393806815
1.397707022
1.401434851
1.405045169
1.408605977
1.412174777
1.415784758
1.419441067
1.423123893
1.426794779
1.430403548
1.433894506
1.43721148
1.440301685
1.443118615
1.445624091
1.447789557
1.449596606
1.451036721
1.452110227
1.452824474
1.453191363
1.453224456
1.452946506
1.452346566
1.451436023
1.450211839
1.448663763
1.446777523
1.444538414
1.441935839
1.43896813
1.43564689
1.432000334
1.428074905
1.423934715
1.419658922
1.415337414
1.411065397
1.406937648
1.403043169
1.399460859
1.396256545
1.393481496
1.391172261
1.389351504
1.388029153
1.387230209
1.386927082
1.387053526
1.387645479
1.388676401
1.390118682
1.391943797
1.394122382
1.396624092
1.399417299
1.402468685
1.405742842
1.409201931
1.412805493
1.416510494
1.420271682
1.424042284
1.427775075
1.431423747
1.43494448
1.438297572
1.441448937
1.444371322
1.447045118
1.449458684
1.451608171
1.453496928
1.455134576
1.456535825
1.457719177
1.458705621
1.459517418
1.460177043
1.460706311
1.461125719
1.461453988
1.461707794
1.461901657
1.462047958
1.462157049
1.462237427
1.462295944
1.462338031
1.462367919
1.462388848
1.462403253
1.462412927
1.462419155
1.462422869
1.462425055
1.459774679
1.459640401
1.459371202
1.45896096
1.458401809
1.457683532
1.45679362
1.455717183
1.454436809
1.452932418
1.451181191
1.449157649
1.446833974
1.444180681
1.441167768
1.43776643
1.433951406
1.429703908
1.425014958
1.419888779
1.414345807
1.40842489
1.402184298
1.395701418
1.389071233
1.382403941
1.375822301
1.369459427
1.363457719
1.357968891
1.353153801
1.349179438
1.34621158
1.344401408
1.343875785
1.344590024
1.34671564
1.350161287
1.354666159
1.359958577
1.365743452
1.371721881
1.377614416
1.383198567
1.388346748
1.393043463
1.397366812
1.401442692
1.405397396
1.409326169
1.413280947
1.417271899
1.421275923
1.425247025
1.429125928
1.43284791
1.436348845
1.439569719
1.442459897
1.444979316
1.447099621
1.448804221
1.450087243
1.450951424
1.45140509
1.451458646
1.451133953
1.450411936
1.449299446
1.447788916
1.445864987
1.443510174
1.440710025
1.437459043
1.433766335
1.429660246
1.425191081
1.420431163
1.415472185
1.410420258
1.40538933
1.400493925
1.395842199
1.391530171
1.387637686
1.384226341
1.381339231
1.379002221
1.3772264
1.376011825
1.375386941
1.375245966
1.375589146
1.376419346
1.377703799
1.379410957
1.381510425
1.383972558
1.38676799
1.38986705
1.393239079
1.396851706
1.400670154
1.404656637
1.408769987
1.412965593
1.417195775
1.421410637
1.425559406
1.429592179
1.433461896
1.437126344
1.44054995
1.44370517
1.446573323
1.449144826
1.451418815
1.453402334
1.455109114
1.456558111
1.457771966
1.458775517
1.459594453
1.460254176
1.460778906
1.461191032
1.461510702
1.461755607
1.461940946
1.462079511
1.462181859
1.462256546
1.462310383
1.4623487
1.462375591
1.462394143
1.462406633
1.462414699
1.462419511
1.462422211
1.459449096
1.45930108
1.459004253
1.458551801
1.457934648
1.457140748
1.456155008
1.454959032
1.453530799
1.451844355
1.449869641
1.447572587
1.444915607
1.441858671
1.438361093
1.434384154
1.42989454
1.424868403
1.419295657
1.413183971
1.4065618
1.399479932
1.392011247
1.384248736
1.376302228
1.368294537
1.360357982
1.352632423
1.345265921
1.338418249
1.332265667
1.32700356
1.32284558
1.320013012
1.318727723
1.319109254
1.321282755
1.325428212
1.331166938
1.338142123
1.345970173
1.354227075
1.362466013
1.370270361
1.377336478
1.383546574
1.388973293
1.393810428
1.398284007
1.402586792
1.406848345
1.411131904
1.415445281
1.419756221
1.42400705
1.428126714
1.432039995
1.435674356
1.438964915
1.441857872
1.444312492
1.446301631
1.447810778
1.448835671
1.449378724
1.449444796
1.44905298
1.448172737
1.446805235
1.444937274
1.442548781
1.439621301
1.436144976
1.432125705
1.427591252
1.422595387
1.417218827
1.411566755
1.40576329
1.399943677
1.394245313
1.388798865
1.383720674
1.3791073
1.375032579
1.371547117
1.368679753
1.366440348
1.364823201
1.363842833
1.363456844
1.363551364
1.364174387
1.365288095
1.366855806
1.368843297
1.371219233
1.37395457
1.377021872
1.380394541
1.384045936
1.387948397
1.392072207
1.396384571
1.400848745
1.405423439
1.410062689
1.414716302
1.419330971
1.423852029
1.428225682
1.432401483
1.43633476
1.439988702
1.44333588
1.446359057
1.449051229
1.451415046
1.453461685
1.455209285
1.456681199
1.457904218
1.45890691
1.459718167
1.460366021
1.460876749
1.461274274
1.461579807
1.461811723
1.461985595
1.46211436
1.462208557
1.46227662
1.462325171
1.462359321
1.462382935
1.462398871
1.462409189
1.46241535
1.46241868
1.45910936
1.458946745
1.458620483
1.458122805
1.45744295
1.456566324
1.45547426
1.45414358
1.452546093
1.450648162
1.44841053
1.445788572
1.442733218
1.439192731
1.435115529
1.430454081
1.425169697
1.419237803
1.412653026
1.405433237
1.397621788
1.389287387
1.380521537
1.371434006
1.362147171
1.352790362
1.343495416
1.334394838
1.325624082
1.317328497
1.309673388
1.302854052
1.297107735
1.292712085
1.289986057
1.289428731
1.291021859
1.295447622
1.302243603
1.310906514
1.321009289
1.332013029
1.343298431
1.354183049
1.364047891
1.372536647
1.379643169
1.385622629
1.390835062
1.395617099
1.400218157
1.404786818
1.40938395
1.414004979
1.418601872
1.423101245
1.427418135
1.431466106
1.435164548
1.438443765
1.441248088
1.443537068
1.445284711
1.446476862
1.447107076
1.447171661
1.446684793
1.445600112
1.443912814
1.441603342
1.438648649
1.435033565
1.430759574
1.425852747
1.420369523
1.414398905
1.408060307
1.401497534
1.394869723
1.3883405
1.382066864
1.37618935
1.370824702
1.366061726
1.361960345
1.358553343
1.355849958
1.353840337
1.352509725
1.351868216
1.351756549
1.352183251
1.353136015
1.354568977
1.356441495
1.358717546
1.36136559
1.36435778
1.367669181
1.371276934
1.375159293
1.379294484
1.383659401
1.388228205
1.392970924
1.397852262
1.402830805
1.407858864
1.412883147
1.417846297
1.422689203
1.427353847
1.431786322
1.435939691
1.439776323
1.443269479
1.446403975
1.449176016
1.451592324
1.453668596
1.455427601
1.45689713
1.458108008
1.459092287
1.459881714
1.460506543
1.460994682
1.46137115
1.461657822
1.461873385
1.462033468
1.462150883
1.46223593
1.462296741
1.462339611
1.462369322
1.462389419
1.462402461
1.462410258
1.462414351
1.458758246
1.45857989
1.458221779
1.457674818
1.456925929
1.45595705
1.454744723
1.453259478
1.4514652
1.449318681
1.446769601
1.443761223
1.440232078
1.436118882
1.431360807
1.42590497
1.41971272
1.412765941
1.405072332
1.396668601
1.387620726
1.378020989
1.36798218
1.357629968
1.347094778
1.336504537
1.32597946
1.315630204
1.305560909
1.295877824
1.286701801
1.278182995
1.270529816
1.264023298
1.259066047
1.256370173
1.256549016
1.260512219
1.267964124
1.278053882
1.290413825
1.304357612
1.319222832
1.334070625
1.347780426
1.359529708
1.369092928
1.376747674
1.38302047
1.388448497
1.393455106
1.398316169
1.403174689
1.408072424
1.4129821
1.417834024
1.422536133
1.426988528
1.431093867
1.434764602
1.437927567
1.440526042
1.442519329
1.443879977
1.444589162
1.44463111
1.444012237
1.44266578
1.440581629
1.437734021
1.434100634
1.429676401
1.424483611
1.418579793
1.412061504
1.405062752
1.397748499
1.390304297
1.382923462
1.375793503
1.369083649
1.362935148
1.357455427
1.352716359
1.348756162
1.345583906
1.343185463
1.341529727
1.340624383
1.340339224
1.340595093
1.341410128
1.342730121
1.344506052
1.346695047
1.349260307
1.352170678
1.355399841
1.358925565
1.362728937
1.366793412
1.371103631
1.375643956
1.380396768
1.385340606
1.390448358
1.395685736
1.401010368
1.40637182
1.411712698
1.416970804
1.422082113
1.426984253
1.431620074
1.435940869
1.439908888
1.443498855
1.446698412
1.449507725
1.451938133
1.454010189
1.455751407
1.457193941
1.458372403
1.459321948
1.460076722
1.460668706
1.46112693
1.461477036
1.461741125
1.461937818
1.46208248
1.462187534
1.462262833
1.462316042
1.462353
1.462378056
1.462394352
1.462404104
1.462409112
1.458398205
1.458202558
1.457809313
1.457207567
1.456381138
1.45530739
1.453956663
1.45229154
1.450266191
1.44782609
1.444908436
1.441443657
1.4373583
1.432579552
1.42704132
1.420691496
1.413499549
1.405463243
1.396613101
1.387013449
1.376759419
1.365970178
1.35477945
1.343324985
1.331738654
1.320138477
1.308623415
1.297271658
1.286143461
1.275288739
1.264756438
1.254604895
1.244944859
1.235963191
1.227981167
1.221721656
1.217988588
1.221657966
1.228910106
1.240004022
1.254537833
1.271125912
1.289671708
1.309245267
1.327935646
1.344086722
1.357051545
1.367050304
1.374799146
1.381099675
1.386613009
1.391792122
1.396896893
1.402037991
1.407222758
1.41239311
1.417453857
1.422292995
1.426796038
1.430855968
1.434379648
1.437291006
1.439531093
1.441055274
1.441828274
1.441818885
1.441020325
1.439343415
1.436773531
1.433280421
1.428848793
1.42349343
1.417269728
1.410279813
1.402671883
1.394633164
1.386378015
1.378132934
1.370120342
1.362543201
1.355572451
1.349338878
1.34393008
1.339392165
1.335735043
1.332939857
1.33096727
1.329807463
1.329360865
1.329466938
1.330168324
1.331400422
1.333105369
1.335232033
1.337736689
1.340582746
1.343739985
1.347183854
1.350894865
1.354857948
1.359061616
1.363496822
1.368155454
1.373028441
1.378103544
1.38336299
1.388781242
1.394323323
1.399944136
1.405589018
1.411195498
1.416696079
1.42202183
1.427106424
1.431890172
1.436323526
1.440369639
1.444005684
1.447223144
1.450026918
1.452433465
1.454468444
1.456164112
1.457556767
1.458684421
1.459584836
1.460293999
1.46084504
1.461267564
1.46158733
1.461826222
1.462002422
1.462130722
1.462222915
1.462288218
1.46233368
1.462364568
1.4623847
1.462396761
1.46240285
1.458031192
1.457816176
1.457383401
1.45671957
1.455804472
1.454609649
1.453097731
1.451221691
1.448924362
1.446138599
1.442788523
1.438792275
1.434066605
1.428533384
1.422127698
1.414806712
1.406557938
1.397405274
1.387411253
1.376674513
1.3653225
1.353500475
1.341358712
1.329040054
1.316669571
1.304347317
1.292144319
1.280101712
1.268233156
1.256529723
1.244961497
1.233472202
1.222023402
1.210617909
1.199333694
1.188532025
1.181611752
1.182949248
1.187987735
1.197947237
1.21517601
1.232820838
1.254276093
1.279283917
1.304300364
1.326078379
1.343418889
1.356476873
1.366161696
1.373595079
1.3797403
1.385278623
1.390622961
1.395976927
1.401397744
1.406848132
1.412234841
1.417435986
1.422320187
1.426759771
1.430639367
1.433860443
1.436342015
1.43801793
1.438831718
1.43873503
1.437697133
1.43561062
1.432455808
1.428202353
1.422851368
1.416450268
1.409102234
1.400967565
1.392256069
1.383213119
1.374101937
1.365184458
1.356702822
1.348863631
1.341826937
1.335701218
1.330544351
1.326369413
1.323153421
1.320847329
1.319426619
1.318821517
1.318785941
1.319381764
1.320539498
1.322189715
1.324272649
1.326736877
1.329539348
1.33264478
1.336024663
1.3396567
1.343524366
1.347616418
1.351926185
1.356450532
1.361188356
1.366138589
1.371297693
1.376656801
1.382198875
1.387896448
1.393710591
1.399591227
1.405478427
1.411304589
1.416997488
1.422484219
1.427695669
1.432570926
1.437060982
1.441131183
1.444762466
1.447951241
1.450707876
1.453054378
1.455021621
1.456646456
1.457968951
1.459029993
1.459869341
1.460524182
1.461028171
1.461410907
1.461697757
1.461909958
1.462064902
1.462176532
1.462255795
1.462311103
1.462348763
1.462373358
1.462388109
1.462395459
1.457658535
1.457421449
1.456943454
1.45620819
1.455190403
1.453854509
1.452153937
1.450030574
1.447414726
1.444226097
1.440376308
1.435773388
1.430328483
1.423964567
1.416626422
1.408290467
1.398972588
1.388732008
1.377669791
1.365921587
1.353645557
1.341007549
1.328166101
1.315259632
1.302397343
1.289654194
1.277069382
1.26464734
1.252360504
1.240151969
1.227929661
1.215542238
1.202792598
1.189318277
1.174260652
1.224332258
1.239124427
1.235904271
1.232992446
1.231856493
1.214125663
1.191106421
1.212835029
1.244296283
1.277270817
1.306000635
1.328524667
1.345192917
1.35719675
1.365994426
1.372891203
1.378833689
1.384416498
1.389956814
1.395575884
1.401266469
1.406942839
1.412476128
1.417718929
1.42252222
1.426746439
1.430267582
1.432978721
1.434787569
1.43561145
1.435381913
1.434035586
1.431451578