/*--------------------------------*- C++ -*----------------------------------*\
| =========                 |                                                 |
| \\      /  F ield         | OpenFOAM: The Open Source CFD Toolbox           |
|  \\    /   O peration     | Version:  2412                                  |
|   \\  /    A nd           | Website:  www.openfoam.com                      |
|    \\/     M anipulation  |                                                 |
\*---------------------------------------------------------------------------*/
FoamFile
{
    version     2.0;
    format      ascii;
    arch        "LSB;label=32;scalar=64";
    class       volScalarField;
    location    "0.1";
    object      dpdt;
}
// * * * * * * * * * * * * * * * * * * * * * * * * * * * * * * * * * * * * * //

dimensions      [1 -1 -3 0 0 0 0];

internalField   nonuniform List<scalar> 
12008
(
49668.89631
49668.89196
49668.8877
49668.88464
49668.88332
49668.884
49668.88685
49668.8922
49668.9005
49668.9122
49668.92778
49668.94766
49668.97224
49669.0018
49669.03653
49669.07641
49669.12122
49669.17052
49669.22358
49669.27943
49669.33682
49669.39432
49669.45035
49669.50328
49669.55151
49669.59356
49669.62818
49669.65438
49669.67149
49669.67916
49669.67724
49669.66571
49669.645
49669.6158
49669.57886
49669.53497
49669.48492
49669.42945
49669.36931
49669.30515
49669.23758
49669.16712
49669.0942
49669.01919
49668.94239
49668.86404
49668.78435
49668.70342
49668.62136
49668.53819
49668.454
49668.36904
49668.28311
49668.19581
49668.10712
49668.01704
49667.9256
49667.83279
49667.73866
49667.64327
49667.54673
49667.4492
49667.35091
49667.25213
49667.15323
49667.05463
49666.95686
49666.86055
49666.7664
49666.67516
49666.58764
49666.50465
49666.42704
49666.35559
49666.291
49666.23386
49666.18457
49666.14328
49666.1099
49666.08409
49666.06522
49666.05238
49666.04447
49666.04019
49666.03818
49666.03699
49666.03528
49666.03184
49666.0257
49666.01615
49666.00277
49665.98545
49665.96425
49665.93934
49665.91102
49665.87974
49665.84607
49665.81056
49665.77378
49665.73624
49665.6984
49665.66063
49665.62324
49665.58648
49665.55053
49665.51553
49665.48159
49665.44879
49665.41714
49665.38664
49665.35726
49665.329
49665.30181
49665.27568
49665.25056
49665.22643
49665.20328
49665.18108
49665.15981
49665.13947
49665.12004
49665.10152
49665.08391
49665.0672
49665.05142
49665.03656
49665.02263
49665.00963
49664.99757
49664.98646
49664.9763
49664.96707
49664.95879
49664.95152
49664.94535
49664.94022
49664.93568
49664.93101
49664.926
49664.92185
49668.90035
49668.89606
49668.89216
49668.88936
49668.88797
49668.88841
49668.89093
49668.89589
49668.90371
49668.91482
49668.92971
49668.94886
49668.97264
49669.00136
49669.03523
49669.07426
49669.11828
49669.16687
49669.21935
49669.27476
49669.3319
49669.38933
49669.44547
49669.49867
49669.5473
49669.58984
49669.625
49669.65177
49669.6694
49669.6775
49669.67619
49669.66525
49669.64478
49669.61576
49669.579
49669.53525
49669.48527
49669.42986
49669.36972
49669.30554
49669.23791
49669.16737
49669.09436
49669.01926
49668.94237
49668.86393
49668.78414
49668.70313
49668.62099
49668.53776
49668.45341
49668.36837
49668.28253
49668.19519
49668.10639
49668.01622
49667.92466
49667.83172
49667.73745
49667.6419
49667.54519
49667.44749
49667.34901
49667.25006
49667.15099
49667.05221
49666.95433
49666.85795
49666.7638
49666.67266
49666.58537
49666.50275
49666.42565
49666.35489
49666.29118
49666.23509
49666.187
49666.14704
49666.11509
49666.09072
49666.07324
49666.06168
49666.05487
49666.05147
49666.05003
49666.04911
49666.04731
49666.04345
49666.03656
49666.02597
49666.01135
49665.99267
49665.97009
49665.94383
49665.91425
49665.88183
49665.84713
49665.81072
49665.77317
49665.73499
49665.69663
49665.65845
49665.62076
49665.58379
49665.5477
49665.5126
49665.47861
49665.44581
49665.4142
49665.38375
49665.35444
49665.32626
49665.29918
49665.27316
49665.24815
49665.22413
49665.20109
49665.17901
49665.15785
49665.13761
49665.11827
49665.09984
49665.08231
49665.06569
49665.04998
49665.03519
49665.02132
49665.00837
49664.99636
49664.98529
49664.9752
49664.96606
49664.95779
49664.95035
49664.94391
49664.93898
49664.93605
49664.93466
49664.93243
49664.9256
49668.9037
49668.89914
49668.89513
49668.8922
49668.89047
49668.89037
49668.89224
49668.89641
49668.90331
49668.91344
49668.92729
49668.94535
49668.96805
49668.99575
49669.02872
49669.06705
49669.11061
49669.15906
49669.21176
49669.26777
49669.32588
49669.3846
49669.44229
49669.49718
49669.54754
49669.59174
49669.6284
49669.65642
49669.67504
49669.68383
49669.68276
49669.67214
49669.65179
49669.62237
49669.58516
49669.5409
49669.49037
49669.43438
49669.37369
49669.30899
49669.24087
49669.16986
49669.09645
49669.02101
49668.94384
49668.86516
49668.78517
49668.704
49668.62175
49668.53842
49668.45389
49668.36888
49668.28317
49668.19584
49668.10698
49668.01673
49667.92505
49667.83196
49667.73748
49667.64167
49667.54464
49667.44654
49667.34761
49667.24812
49667.14845
49667.04902
49666.95043
49666.85334
49666.75849
49666.66671
49666.57886
49666.49583
49666.41854
49666.34786
49666.28454
49666.2292
49666.18223
49666.14378
49666.11366
49666.09141
49666.07623
49666.06706
49666.06261
49666.06141
49666.06189
49666.06249
49666.06173
49666.05831
49666.05128
49666.03998
49666.02416
49666.00393
49665.97969
49665.95187
49665.92071
49665.8866
49665.8503
49665.81248
49665.77373
49665.73453
49665.69535
49665.65652
49665.61834
49665.58101
49665.54465
49665.50934
49665.47529
49665.44258
49665.41104
49665.38069
49665.3515
49665.32346
49665.29653
49665.27068
49665.24581
49665.2219
49665.19901
49665.17706
49665.15602
49665.13589
49665.11667
49665.09833
49665.08089
49665.06435
49665.04872
49665.03399
49665.02018
49665.00729
49664.99531
49664.98426
49664.97418
49664.96512
49664.95707
49664.94984
49664.94311
49664.93689
49664.93208
49664.9302
49664.93086
49664.92703
49668.90511
49668.90023
49668.89587
49668.89253
49668.8902
49668.88928
49668.89011
49668.89308
49668.89866
49668.90737
49668.91974
49668.93632
49668.95763
49668.98411
49669.01614
49669.0539
49669.09738
49669.14632
49669.20013
49669.2579
49669.31835
49669.37992
49669.44078
49669.499
49669.55261
49669.5998
49669.63903
49669.66907
49669.68914
49669.69879
49669.69796
49669.68732
49669.66654
49669.63612
49669.5978
49669.55231
49669.50053
49669.4433
49669.38143
49669.31569
49669.24659
49669.17474
49669.10061
49669.02456
49668.94691
49668.86787
49668.7876
49668.70623
49668.62384
49668.54045
49668.45585
49668.3707
49668.28509
49668.19804
49668.10915
49668.01884
49667.92708
49667.83382
49667.73908
49667.64292
49667.54541
49667.44669
49667.347
49667.24658
49667.14584
49667.04522
49666.94529
49666.84673
49666.75039
49666.65707
49666.56769
49666.48331
49666.40492
49666.33349
49666.2699
49666.21484
49666.16878
49666.13189
49666.10397
49666.0845
49666.07258
49666.067
49666.06632
49666.06886
49666.07288
49666.07657
49666.07822
49666.0764
49666.07005
49666.05853
49666.04158
49666.01976
49665.99418
49665.96457
49665.93099
49665.89462
49665.85621
49665.81647
49665.77603
49665.73542
49665.69507
49665.65532
49665.61644
49665.57862
49665.54195
49665.50635
49665.47216
49665.43946
49665.40799
49665.3778
49665.34875
49665.32087
49665.29409
49665.26839
49665.24369
49665.21999
49665.19728
49665.17548
49665.15455
49665.13454
49665.11542
49665.09718
49665.07982
49665.06336
49665.04779
49665.03311
49665.01935
49665.00651
49664.99459
49664.98357
49664.97344
49664.96428
49664.95625
49664.94947
49664.9437
49664.93826
49664.9328
49664.92878
49664.92864
49664.92683
49668.90484
49668.89967
49668.89486
49668.89092
49668.88776
49668.88571
49668.88513
49668.88649
49668.89029
49668.89709
49668.90748
49668.9221
49668.94158
49668.96651
49668.99738
49669.03454
49669.07814
49669.12804
49669.18372
49669.2443
49669.30844
49669.3744
49669.44014
49669.50338
49669.56186
49669.61347
49669.65639
49669.68929
49669.71129
49669.722
49669.72145
49669.71031
49669.68841
49669.65648
49669.6164
49669.56902
49669.5153
49669.4562
49669.39258
49669.32524
49669.25474
49669.18168
49669.10653
49669.02966
49668.95136
49668.87184
49668.79123
49668.70963
49668.62711
49668.54368
49668.45916
49668.37371
49668.28818
49668.20152
49668.11273
49668.02244
49667.93062
49667.83721
49667.74219
49667.64558
49667.54746
49667.44794
49667.34719
49667.24549
49667.14322
49667.04087
49666.93898
49666.83827
49666.73953
49666.64371
49666.55191
49666.46523
49666.38484
49666.31187
49666.24736
49666.19214
49666.14681
49666.11161
49666.08636
49666.07044
49666.06284
49666.06217
49666.06675
49666.0747
49666.08395
49666.09237
49666.09789
49666.09877
49666.09383
49666.08236
49666.06415
49666.04121
49666.01388
49665.98126
49665.94482
49665.9056
49665.86446
49665.82225
49665.77965
49665.73721
49665.69537
49665.65445
49665.61469
49665.57624
49665.53914
49665.50343
49665.46917
49665.43623
49665.40481
49665.37489
49665.34601
49665.31837
49665.29182
49665.2663
49665.24181
49665.2183
49665.19574
49665.1741
49665.15337
49665.13352
49665.1145
49665.09634
49665.07905
49665.06266
49665.04715
49665.03253
49665.0188
49665.00598
49664.99411
49664.98317
49664.9731
49664.96385
49664.95546
49664.94821
49664.94245
49664.93793
49664.93356
49664.92907
49664.9275
49664.92623
49668.9031
49668.8977
49668.89239
49668.88765
49668.88338
49668.87988
49668.87753
49668.87684
49668.87836
49668.88268
49668.89052
49668.9026
49668.9197
49668.94258
49668.97193
49669.00832
49669.0521
49669.10331
49669.16158
49669.22605
49669.29531
49669.36741
49669.43992
49669.51016
49669.57535
49669.63297
49669.68086
49669.71747
49669.74186
49669.75372
49669.75321
49669.7412
49669.71763
49669.68347
49669.64084
49669.59077
49669.53438
49669.47274
49669.40678
49669.33729
49669.26495
49669.19034
49669.1139
49669.036
49668.95691
49668.87681
49668.79582
49668.714
49668.63138
49668.54794
49668.46359
49668.37817
49668.2925
49668.20596
49668.11775
49668.02753
49667.93573
49667.84221
49667.74692
49667.64983
49667.551
49667.45049
49667.34846
49667.24516
49667.14094
49667.03625
49666.93168
49666.82796
49666.72596
49666.62674
49666.53147
49666.44145
49666.35803
49666.28257
49666.21634
49666.16044
49666.11561
49666.08222
49666.06012
49666.04861
49666.04651
49666.0522
49666.06374
49666.07895
49666.09539
49666.11044
49666.12147
49666.12626
49666.12343
49666.11223
49666.09268
49666.06806
49666.03821
49666.00204
49665.96196
49665.91916
49665.87467
49665.82943
49665.78419
49665.73954
49665.69592
49665.65362
49665.61284
49665.57367
49665.53614
49665.50024
49665.46591
49665.4331
49665.40187
49665.37178
49665.34314
49665.31596
49665.28971
49665.26441
49665.24016
49665.21688
49665.19451
49665.17305
49665.15247
49665.13276
49665.1139
49665.09583
49665.0786
49665.06226
49665.04682
49665.03225
49665.01854
49665.00573
49664.99383
49664.9829
49664.97297
49664.96396
49664.9557
49664.94816
49664.94175
49664.937
49664.93337
49664.92948
49664.92719
49664.92583
49668.9002
49668.89465
49668.8888
49668.88309
49668.87744
49668.87214
49668.86763
49668.86441
49668.86306
49668.86429
49668.86888
49668.8777
49668.8917
49668.91186
49668.93913
49668.97435
49669.01818
49669.07093
49669.13242
49669.2019
49669.27785
49669.35805
49669.43959
49669.51913
49669.59322
49669.6587
49669.71297
49669.75421
49669.78141
49669.79437
49669.79351
49669.78002
49669.7541
49669.71689
49669.67079
49669.61717
49669.55731
49669.49242
49669.42348
49669.35133
49669.27672
49669.20021
49669.12224
49669.04314
49668.96314
49668.88242
49668.80105
49668.71905
49668.63641
49668.55307
49668.46896
49668.38392
49668.29795
49668.21172
49668.12397
49668.0341
49667.94248
49667.84896
49667.75344
49667.65588
49667.55626
49667.45463
49667.35109
49667.24586
49667.13924
49667.03167
49666.92373
49666.81619
49666.70999
49666.60627
49666.50636
49666.41176
49666.32409
49666.24501
49666.17612
49666.11884
49666.0742
49666.04273
49666.02433
49666.01821
49666.02295
49666.03664
49666.05704
49666.08165
49666.1076
49666.13156
49666.15005
49666.16009
49666.15997
49666.14916
49666.12814
49666.10044
49666.06667
49666.02639
49665.98189
49665.93473
49665.88621
49665.83738
49665.78907
49665.74188
49665.69624
49665.65241
49665.61052
49665.57063
49665.53269
49665.49663
49665.46233
49665.4297
49665.39863
49665.36893
49665.34062
49665.31352
49665.28752
49665.26262
49665.23875
49665.21575
49665.1936
49665.17234
49665.15193
49665.13236
49665.11362
49665.09565
49665.07849
49665.0622
49665.04679
49665.03226
49665.01859
49665.00579
49664.99385
49664.98282
49664.97277
49664.9638
49664.95582
49664.94857
49664.94198
49664.93665
49664.93296
49664.92963
49664.92723
49664.92574
49668.89661
49668.89093
49668.88449
49668.87766
49668.87038
49668.86294
49668.85583
49668.84953
49668.84471
49668.84211
49668.84264
49668.84732
49668.8573
49668.87383
49668.89817
49668.93156
49668.97505
49669.02933
49669.09457
49669.17018
49669.25459
49669.34522
49669.43849
49669.53016
49669.61579
49669.69135
49669.7536
49669.80039
49669.8307
49669.84453
49669.84264
49669.82664
49669.79763
49669.75655
49669.70582
49669.64761
49669.5834
49669.51452
49669.44197
49669.36666
49669.28938
49669.21067
49669.13095
49669.05052
49668.96957
49668.88822
49668.80651
49668.72443
49668.6419
49668.55883
49668.47508
49668.39056
49668.3051
49668.21865
49668.13126
49668.04229
49667.95111
49667.85767
49667.762
49667.66401
49667.5636
49667.46075
49667.35551
49667.24805
49667.13862
49667.02762
49666.91563
49666.8034
49666.69194
49666.58251
49666.47661
49666.37599
49666.28261
49666.19851
49666.12576
49666.06621
49666.02131
49665.99183
49665.97776
49665.97816
49665.99127
49666.0148
49666.04619
49666.08267
49666.12094
49666.15672
49666.18512
49666.20186
49666.20486
49666.19404
49666.17043
49666.13838
49666.09955
49666.05382
49666.00381
49665.95142
49665.89816
49665.84522
49665.79346
49665.74349
49665.6957
49665.65028
49665.6073
49665.56673
49665.52847
49665.49235
49665.4582
49665.42587
49665.39517
49665.36594
49665.33812
49665.31133
49665.28562
49665.26114
49665.23752
49665.21479
49665.19295
49665.17196
49665.15176
49665.13234
49665.11369
49665.09581
49665.07873
49665.0625
49665.04711
49665.03256
49665.0189
49665.00613
49664.99424
49664.98319
49664.97302
49664.96384
49664.95579
49664.94877
49664.94244
49664.9369
49664.93286
49664.92973
49664.92741
49664.92589
49668.89286
49668.88706
49668.87996
49668.87186
49668.8627
49668.85279
49668.84261
49668.83268
49668.82368
49668.81643
49668.81195
49668.81143
49668.81623
49668.82792
49668.84817
49668.87868
49668.92106
49668.97657
49669.04588
49669.12873
49669.22359
49669.32744
49669.43582
49669.54317
49669.64363
49669.73192
49669.80396
49669.85724
49669.89078
49669.90493
49669.90091
49669.88067
49669.8478
49669.80226
49669.74528
49669.6813
49669.6118
49669.53815
49669.46139
49669.38244
49669.30212
49669.22095
49669.13932
49669.05748
49668.97559
49668.89368
49668.81176
49668.72975
49668.64753
49668.56494
49668.48182
49668.39798
49668.31325
49668.22731
49668.14021
49668.05184
49667.96188
49667.86858
49667.7729
49667.67457
49667.57341
49667.46931
49667.36226
49667.25234
49667.13973
49667.02477
49666.90799
49666.79017
49666.67233
49666.55584
49666.4424
49666.33406
49666.23317
49666.14231
49666.06414
49666.00114
49665.95533
49665.92789
49665.91889
49665.92712
49665.95036
49665.98575
49666.03042
49666.08157
49666.13567
49666.18713
49666.22864
49666.25373
49666.25986
49666.24794
49666.22026
49666.18173
49666.13585
49666.0832
49666.02644
49665.96787
49665.90919
49665.85169
49665.79623
49665.74338
49665.69344
49665.64652
49665.60259
49665.56152
49665.52312
49665.48714
49665.45333
49665.42146
49665.3913
49665.36265
49665.33536
49665.30923
49665.28413
49665.25986
49665.23661
49665.21426
49665.19274
49665.17198
49665.15196
49665.13267
49665.11413
49665.09635
49665.07935
49665.06316
49665.04777
49665.03321
49665.01949
49665.00666
49664.99476
49664.98376
49664.97362
49664.96433
49664.95606
49664.94895
49664.94282
49664.93739
49664.93314
49664.92998
49664.92772
49664.92622
49668.88958
49668.88366
49668.87582
49668.86631
49668.85502
49668.8423
49668.82859
49668.81443
49668.80051
49668.78771
49668.77714
49668.77014
49668.76834
49668.77363
49668.78818
49668.81429
49668.85429
49668.91025
49668.98361
49669.07472
49669.18224
49669.30273
49669.43051
49669.55815
49669.67766
49669.78193
49669.86582
49669.92642
49669.96301
49669.97652
49669.96901
49669.94289
49669.90408
49669.85234
49669.78795
49669.71714
49669.64141
49669.56224
49669.48067
49669.39768
49669.31404
49669.23022
49669.14658
49669.06333
49668.98056
49668.89824
49668.8163
49668.73459
49668.65295
49668.57115
49668.48896
49668.40613
49668.32241
49668.23746
49668.15097
49668.06395
49667.97431
49667.88175
49667.78644
49667.68798
49667.58618
49667.48089
49667.37196
49667.25943
49667.14333
49667.02394
49666.9017
49666.77735
49666.65193
49666.52689
49666.40413
49666.28603
49666.17544
49666.07562
49665.99001
49665.92197
49665.87436
49665.84894
49665.84591
49665.86362
49665.89898
49665.94828
49666.00848
49666.07726
49666.15155
49666.22415
49666.28323
49666.31844
49666.32702
49666.31174
49666.27829
49666.22947
49666.1733
49666.11243
49666.04763
49665.98195
49665.91733
49665.85502
49665.79584
49665.74022
49665.68836
49665.64024
49665.59569
49665.55445
49665.51622
49665.48067
49665.44748
49665.41632
49665.38692
49665.35904
49665.33246
49665.307
49665.28256
49665.25905
49665.23616
49665.21411
49665.19293
49665.17245
49665.15262
49665.13347
49665.11504
49665.09734
49665.08038
49665.06419
49665.04879
49665.03421
49665.02044
49665.00752
49664.9955
49664.98444
49664.97433
49664.96508
49664.95669
49664.94938
49664.94322
49664.93791
49664.93362
49664.93041
49664.92817
49664.9267
49668.8874
49668.88139
49668.87278
49668.86172
49668.84809
49668.83223
49668.81454
49668.79555
49668.77594
49668.7566
49668.73872
49668.72378
49668.71365
49668.7106
49668.71732
49668.73687
49668.77252
49668.82744
49668.90428
49669.00441
49669.12705
49669.2684
49669.42121
49669.57525
49669.7193
49669.84364
49669.94165
49670.0102
49670.04913
49670.06047
49670.04762
49670.01438
49669.96601
49669.90461
49669.83224
49669.75375
49669.67096
49669.5856
49669.49873
49669.41136
49669.3242
49669.23766
49669.15201
49669.0674
49668.98387
49668.90133
49668.81962
49668.73853
49668.6578
49668.57716
49668.49629
49668.41488
49668.33261
49668.24914
49668.16417
49668.07764
49667.98894
49667.8976
49667.80307
49667.70471
49667.60248
49667.49611
49667.38538
49667.27016
49667.15039
49667.02618
49666.89787
49666.76609
49666.63184
49666.49662
49666.36251
49666.23225
49666.1093
49665.99772
49665.90204
49665.82681
49665.77611
49665.75265
49665.75681
49665.78612
49665.83589
49665.90093
49665.97822
49666.06719
49666.16697
49666.26893
49666.35208
49666.39898
49666.40797
49666.38486
49666.34349
49666.27944
49666.20926
49666.13833
49666.06412
49665.99063
49665.9198
49665.85279
49665.79021
49665.73231
49665.67908
49665.63031
49665.5857
49665.54482
49665.50727
49665.47259
49665.44039
49665.41028
49665.38193
49665.35505
49665.32941
49665.30482
49665.28112
49665.25826
49665.23613
49665.21449
49665.19355
49665.17337
49665.15373
49665.13474
49665.11641
49665.09876
49665.08181
49665.0656
49665.05015
49665.03551
49665.02169
49665.0087
49664.99657
49664.98536
49664.97515
49664.9659
49664.95752
49664.95008
49664.94379
49664.9385
49664.93422
49664.93099
49664.92876
49664.92732
49668.88706
49668.88101
49668.87163
49668.8589
49668.84275
49668.82347
49668.8014
49668.777
49668.75092
49668.72403
49668.69753
49668.673
49668.65253
49668.63874
49668.63491
49668.64495
49668.67332
49668.72471
49668.80351
49668.91284
49669.05314
49669.22059
49669.40595
49669.5948
49669.77078
49669.92026
49670.03487
49670.11151
49670.15123
49670.15783
49670.13653
49670.09289
49670.03266
49669.9597
49669.87743
49669.78988
49669.69916
49669.60705
49669.51451
49669.42255
49669.33179
49669.24255
49669.15499
49669.06915
49668.98502
49668.90247
49668.82127
49668.74113
49668.66172
49668.58267
49668.50358
49668.42407
49668.34372
49668.26215
49668.17902
49668.09391
49668.00639
49667.9162
49667.82336
49667.72529
49667.62288
49667.51571
49667.40334
49667.28554
49667.16205
49667.03281
49666.89795
49666.75792
49666.61362
49666.46651
49666.31879
49666.17358
49666.03498
49665.90811
49665.79887
49665.71351
49665.6579
49665.63626
49665.64938
49665.69325
49665.7601
49665.84187
49665.93585
49666.04583
49666.17696
49666.32214
49666.43949
49666.49832
49666.50128
49666.46495
49666.40991
49666.32757
49666.24332
49666.15732
49666.07193
49665.99019
49665.91336
49665.84222
49665.77702
49665.71771
49665.664
49665.61548
49665.57162
49665.53188
49665.49568
49665.46249
49665.4318
49665.40317
49665.37622
49665.35064
49665.32619
49665.30264
49665.27986
49665.25775
49665.23625
49665.21532
49665.19478
49665.17467
49665.15531
49665.13648
49665.11825
49665.10064
49665.08368
49665.06741
49665.05188
49665.03713
49665.0232
49665.01013
49664.9979
49664.98656
49664.97618
49664.96682
49664.95842
49664.95093
49664.94452
49664.93919
49664.9349
49664.93166
49664.92944
49664.92804
49668.88933
49668.88332
49668.87322
49668.85879
49668.83999
49668.81708
49668.79028
49668.75997
49668.7267
49668.69126
49668.6548
49668.61892
49668.58583
49668.55848
49668.54069
49668.53732
49668.55423
49668.5981
49668.67583
49668.79339
49668.95363
49669.15361
49669.38182
49669.6174
49669.83545
49670.01645
49670.15004
49670.23399
49670.27165
49670.26959
49670.23567
49670.17762
49670.1025
49670.01587
49669.92189
49669.82406
49669.72467
49669.62544
49669.5271
49669.43051
49669.33627
49669.24446
49669.15515
49669.06829
49668.98376
49668.9014
49668.82095
49668.74207
49668.66436
49668.58736
49668.51057
49668.43349
49668.35561
49668.27648
49668.19566
49668.11261
49668.02678
49667.939
49667.8468
49667.75
49667.64794
49667.54039
49667.42678
49667.30669
49667.17965
49667.04538
49666.90372
49666.75485
49666.5994
49666.43869
49666.27495
49666.11157
49665.95336
49665.80668
49665.67926
49665.57968
49665.51644
49665.49634
49665.52129
49665.58439
49665.6717
49665.7693
49665.87558
49666.00215
49666.16896
49666.38356
49666.55218
49666.6227
49666.60964
49666.55012
49666.4676
49666.37109
49666.26713
49666.16348
49666.06679
49665.97732
49665.89542
49665.82124
49665.75458
49665.69501
49665.64194
49665.59472
49665.55263
49665.51494
49665.48093
49665.44994
49665.42139
49665.39478
49665.36968
49665.34576
49665.32276
49665.30049
49665.27879
49665.25756
49665.23677
49665.21637
49665.19635
49665.17675
49665.1574
49665.1387
49665.12058
49665.103
49665.08598
49665.06963
49665.05399
49665.03909
49665.025
49665.01177
49664.99943
49664.98797
49664.97743
49664.96791
49664.9594
49664.95185
49664.94537
49664.93997
49664.93564
49664.9324
49664.93018
49664.92881
49668.89505
49668.8892
49668.87844
49668.86235
49668.84088
49668.81422
49668.78248
49668.74589
49668.70484
49668.65996
49668.61227
49668.56326
49668.51513
49668.471
49668.43518
49668.4134
49668.41309
49668.44337
49668.51461
49668.63721
49668.81859
49669.05861
49669.34401
49669.64392
49669.9184
49670.13875
49670.29311
49670.38187
49670.41264
49670.3963
49670.3443
49670.26713
49670.1734
49670.07057
49669.96333
49669.85436
49669.74597
49669.6396
49669.53561
49669.43476
49669.3374
49669.24334
49669.15256
49669.06489
49668.98016
49668.89817
49668.81865
49668.74126
49668.66554
49668.59099
49668.51699
49668.44291
49668.36813
49668.29206
49668.21417
49668.13392
49668.05078
49667.96454
49667.87415
49667.77967
49667.67834
49667.57094
49667.45665
49667.33482
49667.20473
49667.06576
49666.9174
49666.75943
49666.59205
49666.41622
49666.23397
49666.04884
49665.86628
49665.69406
49665.54225
49665.42262
49665.34751
49665.32816
49665.36957
49665.46015
49665.57246
49665.68285
49665.78693
49665.91382
49666.11353
49666.44239
49666.68878
49666.77205
49666.72733
49666.63108
49666.51888
49666.39946
49666.27473
49666.15455
49666.04799
49665.95228
49665.8667
49665.7907
49665.72361
49665.6647
49665.61314
49665.56807
49665.52858
49665.49376
49665.46274
49665.43472
49665.409
49665.38499
49665.36224
49665.34038
49665.31916
49665.29839
49665.27796
49665.25776
49665.23778
49665.218
49665.19845
49665.17915
49665.16025
49665.14159
49665.12345
49665.10586
49665.08871
49665.07224
49665.05645
49665.04139
49665.0271
49665.01366
49665.00113
49664.98952
49664.97884
49664.96914
49664.96046
49664.95282
49664.94626
49664.94079
49664.93642
49664.93316
49664.93095
49664.92962
49668.90513
49668.89957
49668.88826
49668.87061
49668.84658
49668.81621
49668.77949
49668.73644
49668.68724
49668.63228
49668.57228
49668.5085
49668.44293
49668.37864
49668.32014
49668.27385
49668.24869
49668.25649
49668.31208
49668.43255
49668.63339
49668.92122
49669.28411
49669.67586
49670.02752
49670.29642
49670.47152
49670.55961
49670.57564
49670.53698
49670.45994
49670.35813
49670.24191
49670.12047
49669.99879
49669.87843
49669.76132
49669.64833
49669.53944
49669.43504
49669.33524
49669.23956
49669.14775
49669.05955
49668.97479
49668.89327
49668.81475
49668.73892
49668.66536
49668.5935
49668.52268
49668.45213
49668.38106
49668.30872
49668.23444
49668.15761
49668.07764
49667.99391
49667.90684
49667.8139
49667.71449
49667.60804
49667.4939
49667.3712
49667.23892
49667.09605
49666.94163
49666.77485
49666.5953
49666.40328
49666.20028
49665.98962
49665.77716
49665.5721
49665.38742
49665.23929
49665.14532
49665.12378
49665.18833
49665.32216
49665.46748
49665.57959
49665.65595
49665.75521
49665.97516
49666.51573
49666.91108
49666.98348
49666.85912
49666.6988
49666.55788
49666.41245
49666.26925
49666.1374
49666.02354
49665.92305
49665.83449
49665.75685
49665.68922
49665.63076
49665.58054
49665.53758
49665.50081
49665.46916
49665.44156
49665.41701
49665.39466
49665.3738
49665.35389
49665.33452
49665.31542
49665.29643
49665.27744
49665.25842
49665.23935
49665.22027
49665.20122
49665.18228
49665.16354
49665.14508
49665.12692
49665.10902
49665.09186
49665.07526
49665.05925
49665.04398
49665.02948
49665.0158
49665.00302
49664.9912
49664.98034
49664.97044
49664.96159
49664.95382
49664.94716
49664.94161
49664.9372
49664.93392
49664.93172
49664.93042
49668.92046
49668.91535
49668.90368
49668.88469
49668.85832
49668.82447
49668.78295
49668.73356
49668.67617
49668.61083
49668.53786
49668.45807
49668.373
49668.28529
49668.19922
49668.12142
49668.06177
49668.03469
49668.06005
49668.16428
49668.37676
49668.71805
49669.1873
49669.71532
49670.17502
49670.50311
49670.69442
49670.77102
49670.76006
49670.68809
49670.57736
49670.44491
49670.30256
49670.16074
49670.02424
49669.89314
49669.7683
49669.65016
49669.5382
49669.43125
49669.32996
49669.23374
49669.14165
49669.05335
49668.96873
49668.88769
49668.81008
49668.73571
49668.66422
49668.59511
49668.52768
49668.46103
49668.39421
49668.32627
49668.25633
49668.18367
49668.10766
49668.02765
49667.94335
49667.85331
49667.75709
49667.65238
49667.53945
49667.41707
49667.28391
49667.13853
49666.97939
49666.80495
49666.61389
49666.40549
49666.18018
49665.94041
49665.69184
49665.44475
49665.21557
49665.02658
49664.90256
49664.8715
49664.97008
49665.18851
49665.3746
49665.46957
49665.46343
49665.45192
49665.32972
49666.52602
49667.5178
49667.40656
49667.03729
49666.80943
49666.61753
49666.43602
49666.27331
49666.13435
49666.01355
49665.90707
49665.81347
49665.73179
49665.66121
49665.60095
49665.55013
49665.50774
49665.47258
49665.44338
49665.41884
49665.39773
49665.37893
49665.36153
49665.34482
49665.3283
49665.31165
49665.29469
49665.27735
49665.25963
49665.24157
49665.22323
49665.2047
49665.18609
49665.1675
49665.14902
49665.13074
49665.11293
49665.09551
49665.07859
49665.0624
49665.04687
49665.03208
49665.01814
49665.0051
49664.99301
49664.98188
49664.97176
49664.96274
49664.95483
49664.94805
49664.94241
49664.93793
49664.93463
49664.93244
49664.93118
49668.94193
49668.93744
49668.92567
49668.90567
49668.87734
49668.84045
49668.79461
49668.73934
49668.67418
49668.59872
49668.51274
49668.41642
49668.31051
49668.19681
49668.07871
49667.9621
49667.85676
49667.77846
49667.7515
49667.81381
49668.01761
49668.40741
49669.02305
49669.7655
49670.38116
49670.77235
49670.97181
49671.01804
49670.96158
49670.84188
49670.68763
49670.51844
49670.34723
49670.18454
49670.0342
49669.89434
49669.76424
49669.64365
49669.53064
49669.4233
49669.3218
49669.22683
49669.13549
49669.04768
49668.96347
49668.88288
49668.80596
49668.7327
49668.66296
49668.59636
49668.53225
49668.46968
49668.4075
49668.34452
49668.27963
49668.21189
49668.14056
49668.06495
49667.98448
49667.89882
49667.80595
49667.70424
49667.59394
49667.47348
49667.34129
49667.19548
49667.03388
49666.85407
49666.65355
49666.4301
49666.18237
49665.91093
49665.61993
49665.31956
49665.02967
49664.78135
49664.60971
49664.55277
49664.6955
49665.08524
49665.33303
49665.40248
49665.26955
49664.77331
49662.96068
49666.17621
49668.15405
49667.66842
49667.10227
49666.85877
49666.66452
49666.47017
49666.30594
49666.16697
49666.03903
49665.92298
49665.81962
49665.72897
49665.65079
49665.58456
49665.52951
49665.48461
49665.44858
49665.41995
49665.39715
49665.37864
49665.36297
49665.34891
49665.33548
49665.322
49665.30803
49665.29333
49665.27781
49665.26152
49665.24454
49665.22697
49665.20896
49665.19065
49665.17219
49665.15371
49665.13534
49665.11726
49665.09957
49665.08244
49665.06583
49665.04991
49665.03485
49665.02065
49665.00729
49664.99485
49664.98342
49664.97308
49664.96387
49664.9558
49664.94887
49664.94313
49664.93858
49664.93524
49664.93306
49664.93185
49668.97034
49668.96669
49668.95514
49668.93455
49668.90484
49668.8656
49668.81623
49668.75599
49668.68402
49668.59941
49668.50129
49668.389
49668.26223
49668.12144
49667.96831
49667.80672
49667.64424
49667.49524
49667.38469
49667.35982
49667.50723
49667.90353
49668.72379
49669.83423
49670.67524
49671.13202
49671.30024
49671.29286
49671.16948
49670.9848
49670.77654
49670.56581
49670.36473
49670.1828
49670.02176
49669.87702
49669.74567
49669.62654
49669.51538
49669.41157
49669.31134
49669.21968
49669.13059
49669.04411
49668.9607
49668.88061
49668.80408
49668.73142
49668.66281
49668.59815
49668.53696
49668.47832
49668.42093
49668.36334
49668.3041
49668.24201
49668.17617
49668.1058
49668.03034
49667.94952
49667.86113
49667.76377
49667.65773
49667.54117
49667.41233
49667.26895
49667.10824
49666.92682
49666.72083