/*--------------------------------*- C++ -*----------------------------------*\
| =========                 |                                                 |
| \\      /  F ield         | OpenFOAM: The Open Source CFD Toolbox           |
|  \\    /   O peration     | Version:  2412                                  |
|   \\  /    A nd           | Website:  www.openfoam.com                      |
|    \\/     M anipulation  |                                                 |
\*---------------------------------------------------------------------------*/
FoamFile
{
    version     2.0;
    format      ascii;
    arch        "LSB;label=32;scalar=64";
    class       surfaceScalarField;
    location    "0.1";
    object      phi;
}
// * * * * * * * * * * * * * * * * * * * * * * * * * * * * * * * * * * * * * //

dimensions      [1 0 -1 0 0 0 0];

oriented        oriented;

internalField   nonuniform List<scalar> 
23538
(
-1.844041956e-10
1.217550509e-10
-4.710674002e-10
2.244165699e-10
-7.677317063e-10
2.354686261e-10
-1.032201607e-09
2.044649817e-10
-1.251148609e-09
1.605778269e-10
-1.421001371e-09
1.135793413e-10
-1.539839491e-09
6.505940325e-11
-1.604679562e-09
1.388282212e-11
-1.611098483e-09
-4.141996544e-11
-1.553641926e-09
-1.019113809e-10
-1.42634486e-09
-1.681346468e-10
-1.223221023e-09
-2.401592034e-10
-9.38674568e-10
-3.176432662e-10
-5.679089598e-10
-3.998394675e-10
-1.073725157e-10
-4.85558474e-10
4.447603993e-10
-5.731236153e-10
1.088088123e-09
-6.603549042e-10
1.819506054e-09
-7.445888647e-10
2.632804955e-09
-8.227531264e-10
3.518410378e-09
-8.914996689e-10
4.46331306e-09
-9.474023958e-10
5.451246241e-09
-9.871910937e-10
6.463104602e-09
-1.008003389e-09
7.477607374e-09
-1.007626273e-09
8.472156783e-09
-9.846959175e-10
9.423816956e-09
-9.388164927e-10
1.031030593e-08
-8.705898889e-10
1.111093103e-08
-7.815497647e-10
1.180735626e-08
-6.740157749e-10
1.238422084e-08
-5.509363203e-10
1.282885675e-08
-4.15002959e-10
1.313054713e-08
-2.681722692e-10
1.328370835e-08
-1.156323217e-10
1.328942272e-08
3.588216023e-11
1.315333484e-08
1.817048448e-10
1.288473291e-08
3.180809202e-10
1.249578332e-08
4.419971176e-10
1.200070431e-08
5.512079286e-10
1.141549958e-08
6.440872858e-10
1.075644619e-08
7.198559721e-10
1.004022695e-08
7.781381409e-10
9.283138815e-09
8.192486113e-10
8.50071238e-09
8.439260742e-10
7.707400696e-09
8.532430958e-10
6.916415135e-09
8.484841557e-10
6.139666181e-09
8.310204787e-10
5.387796192e-09
8.022098733e-10
4.670281143e-09
7.633350522e-10
3.995489177e-09
7.156187738e-10
3.37069744e-09
6.602882553e-10
2.802035826e-09
5.986203709e-10
2.293889107e-09
5.324801695e-10
1.848610759e-09
4.640178605e-10
1.467869724e-09
3.940255177e-10
1.153606285e-09
3.223355381e-10
9.070508845e-10
2.497553334e-10
7.283762158e-10
1.774363189e-10
6.165569031e-10
1.066638798e-10
5.693100173e-10
3.87841073e-11
5.830838903e-10
-2.485460796e-11
6.531219962e-10
-8.295928498e-11
7.735758635e-10
-1.343588703e-10
9.376759922e-10
-1.780546086e-10
1.137856674e-09
-2.132400533e-10
1.366072226e-09
-2.39325765e-10
1.613950269e-09
-2.558702978e-10
1.8728926e-09
-2.626576254e-10
2.134282983e-09
-2.596413294e-10
2.389546112e-09
-2.468571355e-10
2.630169877e-09
-2.243906535e-10
2.847694961e-09
-1.923500331e-10
3.033750795e-09
-1.509172033e-10
3.180146954e-09
-1.004009909e-10
3.278988874e-09
-4.127149564e-11
3.322888491e-09
2.575572525e-11
3.30526789e-09
9.963710084e-11
3.220745746e-09
1.789120307e-10
3.065615512e-09
2.616403407e-10
2.838341085e-09
3.453842565e-10
2.540055068e-09
4.272303799e-10
2.174970801e-09
5.038784851e-10
1.750683843e-09
5.717773146e-10
1.278273214e-09
6.273099678e-10
7.72175415e-10
6.670505579e-10
2.497369084e-10
6.880537594e-10
-2.695473377e-10
6.881905458e-10
-7.651385957e-10
6.664602161e-10
-1.216762777e-09
6.232099406e-10
-1.605756311e-09
5.601412794e-10
-1.916243111e-09
4.801532331e-10
-2.136176724e-09
3.871883949e-10
-2.258517989e-09
2.862370287e-10
-2.281630978e-09
1.830573143e-10
-2.209580605e-09
8.325474689e-11
-2.051051292e-09
-8.437990569e-12
-1.818448087e-09
-8.821846753e-11
-1.527155707e-09
-1.53017241e-10
-1.194771864e-09
-2.005634924e-10
-8.400814618e-10
-2.296092371e-10
-4.819713922e-10
-2.400027439e-10
-1.383066463e-10
-2.327346288e-10
1.751355501e-10
-2.098651696e-10
4.455220651e-10
-1.743316222e-10
6.63559804e-10
-1.296582374e-10
8.23729833e-10
-7.961275362e-11
9.241944118e-10
-2.78726301e-11
9.663804668e-10
2.22934498e-11
9.544533404e-10
6.815981937e-11
8.946509958e-10
1.076759461e-10
7.946396368e-10
1.394461571e-10
6.628574533e-10
1.627338856e-10
5.079385083e-10
1.773957549e-10
3.382438846e-10
1.837606108e-10
1.615198947e-10
1.825183485e-10
-1.537140041e-11
1.746109047e-10
-1.866010472e-10
1.611453815e-10
-3.474374062e-10
1.432771054e-10
-4.942249492e-10
1.221398187e-10
-6.243363927e-10
9.880095611e-11
-7.360679879e-10
7.422437131e-11
-8.285186973e-10
4.923124054e-11
-9.014495964e-10
2.449461319e-11
-9.551437719e-10
5.385804362e-13
-9.902675345e-10
-2.226242502e-11
-1.007747633e-09
-4.367179647e-11
-1.008650453e-09
-6.356278282e-11
-9.94100683e-10
-8.191213089e-11
-9.651970221e-10
-9.877124242e-11
-9.22955271e-10
-1.142560114e-10
-8.682614337e-10
-1.285353918e-10
-8.018380751e-10
-1.418260433e-10
-7.242004874e-10
-1.543737555e-10
-6.356221976e-10
-1.664115432e-10
-5.361498812e-10
-1.78072119e-10
-4.259210733e-10
-1.89224197e-10
-3.062496294e-10
-1.98971526e-10
-1.823080862e-10
-2.042553985e-10
-6.770495825e-11
-1.974295135e-10
9.25758243e-12
-1.630165505e-10
-7.675598247e-11
-3.198199661e-10
3.794374336e-10
-7.991877808e-10
6.417998381e-10
-1.265317608e-09
6.407016257e-10
-1.646119973e-09
5.258156054e-10
-1.916349601e-09
3.731511959e-10
-2.068188543e-09
2.09946873e-10
-2.097057658e-09
4.104508426e-11
-1.996692709e-09
-1.364043896e-10
-1.758375967e-09
-3.263672149e-10
-1.371694081e-09
-5.316481487e-10
-8.255393853e-10
-7.535273731e-10
-1.090423015e-10
-9.91884362e-10
7.875562994e-10
-1.245318053e-09
1.8720053e-09
-1.511134473e-09
3.14913681e-09
-1.785283153e-09
4.619895496e-09
-2.062265388e-09
6.280363902e-09
-2.335093852e-09
8.120848379e-09
-2.595383601e-09
1.012514628e-08
-2.833588254e-09
1.227008698e-08
-3.039421557e-09
1.452546953e-08
-3.202438633e-09
1.685446263e-08
-3.312730343e-09
1.921449243e-08
-3.361665221e-09
2.155858517e-08
-3.342587499e-09
2.383707303e-08
-3.251380882e-09
2.599952054e-08
-3.086811419e-09
2.79966961e-08
-2.85061197e-09
2.978241842e-08
-2.547292965e-09
3.131510776e-08
-2.183711116e-09
3.255887204e-08
-1.768454389e-09
3.348511812e-08
-1.311488683e-09
3.407249483e-08
-8.220233882e-10
3.430749802e-08
-3.131230044e-10
3.418752736e-08
1.975028165e-10
3.372132088e-08
6.937536349e-10
3.292661244e-08
1.16274827e-09
3.182856429e-08
1.593899664e-09
3.045811207e-08
1.978867245e-09
2.885130555e-08
2.31137994e-09
2.704634128e-08
2.587598819e-09
2.508340281e-08
2.80530792e-09
2.300301867e-08
2.964383645e-09
2.084495533e-08
3.066271742e-09
1.864730851e-08
3.113703424e-09
1.644582701e-08
3.110343165e-09
1.427347636e-08
3.060421288e-09
1.216022111e-08
2.968406524e-09
1.013296369e-08
2.838782324e-09
8.21552908e-09
2.67599521e-09
6.428563831e-09
2.484592638e-09
4.789309095e-09
2.269413711e-09
3.310998395e-09
2.036471196e-09
2.002139451e-09
1.792769712e-09
8.675052123e-10
1.542949898e-09
-8.962336046e-11
1.288438795e-09
-8.683198952e-10
1.032494112e-09
-1.470526184e-09
7.792277996e-10
-1.901310776e-09
5.331298937e-10
-2.16892187e-09
2.988110083e-10
-2.284684978e-09
8.077887352e-11
-2.262749352e-09
-1.167736374e-10
-2.119693824e-09
-2.901630923e-10
-1.874031977e-09
-4.363749318e-10
-1.545776188e-09
-5.531381633e-10
-1.155587539e-09
-6.390586002e-10
-7.242592488e-10
-6.934530404e-10
-2.723919836e-10
-7.163310778e-10
1.800088882e-10
-7.082132231e-10
6.137808906e-10
-6.699824489e-10
1.010786757e-09
-6.027805326e-10
1.354081257e-09
-5.079746351e-10
1.627962272e-09
-3.870904883e-10
1.81798863e-09
-2.418509282e-10
1.911141341e-09
-7.433417124e-11
1.896103111e-09
1.128283743e-10
1.763667355e-09
3.16230327e-10
1.507290561e-09
5.314745611e-10
1.123793293e-09
7.530072554e-10
6.140999003e-10
9.740114457e-10
-1.596082632e-11
1.186450465e-09
-7.54966091e-10
1.381236336e-09
-1.58538838e-09
1.548569005e-09
-2.483392493e-09
1.678435179e-09
-3.419067397e-09
1.761284108e-09
-4.357203663e-09
1.78887426e-09
-5.258723398e-09
1.755240234e-09
-6.08275315e-09
1.657644487e-09
-6.789167258e-09
1.497250909e-09
-7.34123317e-09
1.279245382e-09
-7.708043216e-09
1.012435162e-09
-7.866679491e-09
7.088539281e-10
-7.804524328e-09
3.83693462e-10
-7.520319356e-09
5.453293034e-11
-7.024233092e-09
-2.618210051e-10
-6.336249696e-09
-5.506866868e-10
-5.484662104e-09
-7.998555792e-10
-4.50437472e-09
-9.995619602e-10
-3.4357856e-09
-1.141958825e-09
-2.322808808e-09
-1.2222202e-09
-1.210279508e-09
-1.239209347e-09
-1.413596015e-10
-1.195537588e-09
8.449241289e-10
-1.097359702e-09
1.715800157e-09
-9.538491792e-10
2.446354318e-09
-7.763804891e-10
3.02047865e-09
-5.775180778e-10
3.430977758e-09
-3.698564929e-10
3.678988448e-09
-1.64989366e-10
3.772867399e-09
2.712635959e-11
3.72656348e-09
1.988536897e-10
3.558168074e-09
3.446691939e-10
3.288338229e-09
4.613080421e-10
2.938863291e-09
5.475230616e-10
2.531466102e-09
6.037650042e-10
2.086826637e-09
6.318166088e-10
1.623835976e-09
6.344853382e-10
1.15909359e-09
6.152199194e-10
7.066610988e-10
5.777793934e-10
2.779570922e-10
5.259971359e-10
-1.182023381e-10
4.635950547e-10
-4.75437998e-10
3.940029303e-10
-7.895403246e-10
3.202406911e-10
-1.058163928e-09
2.448627785e-10
-1.280493954e-09
1.69925854e-10
-1.456905243e-09
9.699338155e-11
-1.588644012e-09
2.715987632e-11
-1.677538036e-09
-3.889485666e-11
-1.725742323e-09
-1.008408823e-10
-1.735554946e-09
-1.586238306e-10
-1.709252858e-09
-2.123993769e-10
-1.648949701e-09
-2.625069995e-10
-1.556471896e-09
-3.094706412e-10
-1.433278104e-09
-3.539965673e-10
-1.280507068e-09
-3.968332747e-10
-1.099303993e-09
-4.382529966e-10
-8.916557171e-10
-4.769492554e-10
-6.621931969e-10
-5.082639274e-10
-4.218537385e-10
-5.21630616e-10
-1.945602227e-10
-4.971095023e-10
-2.631414568e-11
-4.012332774e-10
-1.869363192e-10
-3.439329838e-10
6.622444057e-10
-8.42600582e-10
1.079639859e-09
-1.298255279e-09
1.036467298e-09
-1.628864359e-09
7.980287358e-10
-1.804385547e-09
4.922344997e-10
-1.81402971e-09
1.65546912e-10
-1.650788384e-09
-1.734320885e-10
-1.30600363e-09
-5.292154526e-10
-7.683963587e-10
-9.084357572e-10
-2.469155695e-11
-1.31592212e-09
9.391966575e-10
-1.75382937e-09
2.136910341e-09
-2.221640258e-09
3.580465787e-09
-2.716391293e-09
5.279101937e-09
-3.232683749e-09
7.2380602e-09
-3.762541476e-09
9.457293665e-09
-4.295249701e-09
1.193014886e-08
-4.817299444e-09
1.464215535e-08
-5.312548724e-09
1.757002841e-08
-5.762696947e-09
2.068105077e-08
-6.148074265e-09
2.393298638e-08
-6.44873386e-09
2.727459708e-08
-6.64576685e-09
3.064682512e-08
-6.722698148e-09
3.398458211e-08
-6.66679371e-09
3.721903269e-08
-6.470111444e-09
4.028015813e-08
-6.130149291e-09
4.309940849e-08
-5.650002037e-09
4.561219196e-08
-5.038031925e-09
4.776004205e-08
-4.307118854e-09
4.949232822e-08
-3.473598365e-09
5.076755183e-08
-2.556504322e-09
5.155543521e-08
-1.576243255e-09
5.183607364e-08
-5.562657541e-10
5.160216639e-08
4.730600456e-10
5.086193956e-08
1.480010606e-09
4.963630786e-08
2.438874204e-09
4.795715622e-08
3.327922039e-09
4.586526198e-08
4.129421964e-09
4.34098489e-08
4.829497476e-09
4.064444576e-08
5.418623464e-09
3.762668352e-08
5.890698161e-09
3.441607484e-08
6.243583655e-09
3.10722768e-08
6.478486727e-09
2.765359338e-08
6.599458672e-09
2.421571723e-08
6.612802896e-09
2.081075463e-08
6.526419349e-09
1.748655712e-08
6.349174335e-09
1.428631696e-08
6.090381469e-09
1.124837735e-08
5.759531119e-09
8.406093657e-09
5.366361193e-09
5.787633468e-09
4.921078456e-09
3.415999755e-09
4.435039349e-09
1.307370044e-09
3.922221369e-09
-5.308461749e-10
3.39616367e-09
-2.096121554e-09
2.863271523e-09
-3.389467934e-09
2.330440891e-09
-4.416431099e-09
1.806389977e-09
-5.187389134e-09
1.300521391e-09
-5.717550214e-09
8.223428571e-10
-6.026696082e-09
3.810054828e-10
-6.138699874e-09
-1.513273203e-11
-6.08084596e-09
-3.588926241e-10
-5.883003567e-09
-6.445982662e-10
-5.576898567e-09
-8.681988444e-10
-5.194704849e-09
-1.027653941e-09
-4.768289916e-09
-1.122481544e-09
-4.328612718e-09
-1.153651959e-09
-3.90496685e-09
-1.123342528e-09
-3.524488312e-09
-1.034600745e-09
-3.211780047e-09
-8.911556635e-10
-2.988582267e-09
-6.973319722e-10
-2.873657882e-09
-4.577734029e-10
-2.882728162e-09
-1.774200744e-10
-3.028313309e-09
1.382197282e-10
-3.319502925e-09
4.828253527e-10
-3.761640133e-09
8.489635895e-10
-4.355900743e-09
1.22778334e-09
-5.098776908e-09
1.608768371e-09
-5.981486175e-09
1.97958866e-09
-6.989364361e-09
2.32612724e-09
-8.101318376e-09
2.632741165e-09
-9.289470949e-09
2.882771145e-09
-1.051910291e-08
3.059359576e-09
-1.174904866e-08
3.146553259e-09
-1.29326768e-08
3.130711106e-09
-1.40195675e-08
3.002168306e-09
-1.495791219e-08
2.756879864e-09
-1.569748039e-08
2.397664476e-09
-1.619282906e-08
1.93455045e-09
-1.64062945e-08
1.384170811e-09
-1.631073767e-08
7.691135744e-10
-1.589255034e-08
1.179656953e-10
-1.515359317e-08
-5.357675505e-10
-1.411033322e-08
-1.161052045e-09
-1.279020698e-08
-1.732057033e-09
-1.123198561e-08
-2.225160731e-09
-9.485791013e-09
-2.619155598e-09
-7.609559835e-09
-2.898273797e-09
-5.665950205e-09
-3.052877332e-09
-3.719347948e-09
-3.080019958e-09
-1.832637929e-09
-2.983728715e-09
-6.400181959e-11
-2.774800003e-09
1.536018831e-09
-2.470002826e-09
2.926928658e-09
-2.090732397e-09
4.079958346e-09
-1.661282938e-09
4.979009126e-09
-1.206918836e-09
5.620773641e-09
-7.520400187e-10
6.013614131e-09
-3.182926614e-10
6.175247613e-09
7.731026868e-11
6.130140789e-09
4.224908931e-10
5.907227178e-09
7.095192422e-10
5.537880069e-09
9.347243013e-10
5.054116904e-09
1.097944412e-09
4.487105255e-09
1.201856024e-09
3.866058789e-09
1.251267759e-09
3.217428358e-09
1.252460965e-09
2.564270046e-09
1.212638082e-09
1.925948825e-09
1.139387668e-09
1.318081492e-09
1.040229361e-09
7.526982228e-10
9.222255698e-10
2.385390419e-10
7.917231798e-10
-2.185899725e-10
6.542231661e-10
-6.153542067e-10
5.142773285e-10
-9.504249289e-10
3.754453631e-10
-1.224005063e-09
2.40357701e-10
-1.437409625e-09
1.107910917e-10
-1.592688502e-09
-1.221412881e-11
-1.692312001e-09
-1.282115485e-10
-1.73894619e-09
-2.372169348e-10
-1.735272287e-09
-3.395741206e-10
-1.6838052e-09
-4.359350416e-10
-1.586695039e-09
-5.272836655e-10
-1.445695834e-09
-6.148110763e-10
-1.262597908e-09
-6.992064355e-10
-1.040569191e-09
-7.786165167e-10
-7.867181989e-10
-8.448098198e-10
-5.15845275e-10
-8.779503581e-10
-2.55414449e-10
-8.416755449e-10
-5.183944299e-11
-6.804877973e-10
-3.203344395e-10
-3.297792074e-10
9.321698403e-10
-7.894375169e-10
1.479975487e-09
-1.17906801e-09
1.367775284e-09
-1.413746131e-09
9.759795588e-10
-1.461150967e-09
4.85060721e-10
-1.308115716e-09
-3.941453221e-11
-9.453061939e-10
-5.850413042e-10
-3.616257912e-10
-1.15812792e-09
4.569807063e-10
-1.768294585e-09
1.526733472e-09
-2.422584748e-09
2.864652493e-09
-3.123999048e-09
4.487214156e-09
-3.871544614e-09
6.408994574e-09
-4.660432329e-09
8.641274459e-09
-5.482046172e-09
1.119052037e-08
-6.323693608e-09
1.405676757e-08
-7.168329464e-09
1.723196151e-08
-7.994452345e-09
2.06983896e-08
-8.776363306e-09
2.442739367e-08
-9.484902415e-09
2.837854645e-08
-1.008870067e-08
3.24994882e-08
-1.055592453e-08
3.672654666e-08
-1.085637411e-08
4.098621545e-08
-1.096371644e-08
4.519740999e-08
-1.085758944e-08
4.927435671e-08
-1.052526926e-08
5.312983975e-08
-9.962695406e-09
5.667853682e-08
-9.174707979e-09
5.984014293e-08
-8.174528205e-09
6.254207745e-08
-6.982602446e-09
6.472165164e-08
-5.625008547e-09
6.632750821e-08
-4.131993454e-09
6.732125725e-08
-2.536843863e-09
6.767675771e-08
-8.752342272e-10
6.738289944e-08
8.074064018e-10
6.644613066e-08
2.46170843e-09
6.488826309e-08
4.046452752e-09
6.274483976e-08
5.52597101e-09
6.006281513e-08
6.870397953e-09
5.690066412e-08
8.055545734e-09
5.332340828e-08
9.063702953e-09
4.940228977e-08
9.882410976e-09
4.521247065e-08
1.050565318e-08
4.08306141e-08
1.093293476e-08
3.63328744e-08
1.116872396e-08
3.179304943e-08
1.122169187e-08
2.728100615e-08
1.110376995e-08
2.286144609e-08
1.082915212e-08
1.859306274e-08
1.04133926e-08
1.452806209e-08
9.872729705e-09
1.071197388e-08
9.223842282e-09
7.183486499e-09
8.484035255e-09
3.974944657e-09
7.671227702e-09
1.111768882e-09
6.806513355e-09
-1.39359164e-09
5.916543477e-09
-3.540406945e-09
5.019557682e-09
-5.332634139e-09
4.127217372e-09
-6.780192055e-09
3.254267097e-09
-7.899370434e-09
2.416538516e-09
-8.712808466e-09
1.629942744e-09
-9.249114579e-09
9.09653901e-10
-9.542163379e-09
2.693681756e-10
-9.630140737e-09
-2.793598918e-10
-9.554335492e-09
-7.276542134e-10
-9.35814683e-09
-1.069503755e-09
-9.08522894e-09
-1.302330749e-09
-8.778474489e-09
-1.426358313e-09
-8.478813462e-09
-1.444580659e-09
-8.22429772e-09
-1.362052355e-09
-8.049141988e-09
-1.185691683e-09
-7.983030246e-09
-9.238487232e-10
-8.050921467e-09
-5.857035215e-10
-8.272789976e-09
-1.810770184e-10
-8.663300147e-09
2.795389237e-10
-9.231687386e-09
7.849241337e-10
-9.981675102e-09
1.322918448e-09
-1.091138823e-08
1.880154944e-09
-1.201324985e-08
2.441765696e-09
-1.327386217e-08
2.991123137e-09
-1.467382244e-08
3.509675917e-09
-1.618750116e-08
3.976959878e-09
-1.778284773e-08
4.370873664e-09
-1.942129222e-08
4.668308956e-09
-2.105789845e-08
4.846179174e-09
-2.264188146e-08
4.882853417e-09
-2.411761409e-08
4.760041249e-09
-2.542630578e-08
4.465059755e-09
-2.650836962e-08
3.99317103e-09
-2.730645933e-08
3.349486437e-09
-2.77689436e-08
2.549744005e-09
-2.785324484e-08
1.619591095e-09
-2.752918103e-08
5.937780189e-10
-2.678241415e-08
-4.82970652e-10
-2.561635909e-08
-1.559685844e-09
-2.404926293e-08
-2.590549153e-09
-2.211504194e-08
-3.534000179e-09
-1.986356358e-08
-4.350383016e-09
-1.735644926e-08
-5.006618783e-09
-1.466467831e-08
-5.477453408e-09
-1.186562062e-08
-5.746713823e-09
-9.039631785e-09
-5.808324657e-09
-6.266435824e-09
-5.666833364e-09
-3.621451777e-09
-5.337234979e-09
-1.172309424e-09
-4.844004277e-09
1.024205323e-09
-4.21933894e-09
2.92454973e-09
-3.500762138e-09
4.499912963e-09
-2.728286358e-09
5.736733734e-09
-1.941587804e-09
6.636621161e-09
-1.177525062e-09
7.215476854e-09
-4.674499547e-10
7.500507077e-09
1.650055339e-10
7.525844498e-09
7.051530223e-10
7.329753367e-09
1.145179493e-09
6.952146135e-09
1.483275293e-09
6.432769045e-09
1.722297825e-09
5.809612615e-09
1.868854007e-09
5.117716447e-09
1.932219522e-09
4.388361282e-09
1.923420537e-09
3.648600119e-09
1.854320439e-09
2.921128461e-09
1.736860554e-09
2.224260738e-09
1.582540154e-09
1.572079726e-09
1.401972959e-09
9.748459316e-10
1.204524101e-09
4.395043935e-10
9.980761692e-10
-2.97690684e-11
7.88978066e-10
-4.310227512e-10
5.820754201e-10
-7.639930311e-10
3.808362142e-10
-1.02963543e-09
1.875110142e-10
-1.229722199e-09
3.349185967e-12
-1.366519282e-09
-1.712086283e-10
-1.442546157e-09
-3.363414321e-10
-1.460428913e-09
-4.926722535e-10
-1.422713969e-09
-6.411776885e-10
-1.331660632e-09
-7.829975796e-10
-1.189352418e-09
-9.186475298e-10
-9.98854046e-10
-1.045671286e-09
-7.672481576e-10
-1.153424508e-09
-5.105402107e-10
-1.214787125e-09
-2.586236672e-10
-1.177582281e-09
-5.715937443e-11
-9.611294374e-10
-4.579989419e-10
-3.102740331e-10
1.184465406e-09
-7.241866826e-10
1.836534255e-09
-1.044364509e-09
1.631745866e-09
-1.185097392e-09
1.062291622e-09
-1.112375068e-09
3.603282406e-10
-8.107426596e-10
-3.900531723e-10
-2.681921223e-10
-1.173043203e-09
5.29586622e-10
-1.997284524e-09
1.600108592e-09
-2.875648373e-09
2.963221816e-09
-3.817545985e-09
4.639738156e-09
-4.827009379e-09
6.649965137e-09
-5.902603771e-09
9.012147643e-09
-7.037576697e-09
1.174080872e-08
-8.21968865e-09
1.484488502e-08
-9.430787961e-09
1.832571073e-08
-1.064635723e-08
2.217491402e-08
-1.183532844e-08
2.637240605e-08
-1.2960433e-08
3.088470744e-08
-1.397924453e-08
3.566384249e-08
-1.484601406e-08
4.064707999e-08
-1.551423493e-08
4.5757696e-08
-1.593975259e-08
5.090683404e-08
-1.608410309e-08
5.599641255e-08
-1.591763669e-08
6.09228134e-08
-1.542198207e-08
6.55810186e-08
-1.459151729e-08
6.986878106e-08
-1.34336518e-08
7.369047771e-08
-1.196800189e-08
7.696036827e-08
-1.022465127e-08
7.960510997e-08
-8.24184657e-09
8.156533669e-08
-6.063593198e-09
8.279676076e-08
-3.73810293e-09
8.326855727e-08
-1.314413919e-09
8.296637115e-08
1.145592609e-09
8.189510061e-08
3.57322968e-09
8.007695584e-08
5.909826447e-09
7.754996695e-08
8.103659432e-09
7.436551906e-08
1.011052446e-08
7.058930455e-08
1.189360205e-08
6.629542458e-08
1.342459369e-08
6.156655339e-08
1.468232606e-08
5.649129093e-08
1.565479992e-08
5.116139073e-08
1.633804928e-08
4.566929923e-08
1.673568654e-08
4.010573233e-08
1.685807284e-08
3.455746697e-08
1.672115699e-08
2.910549695e-08
1.634511721e-08
2.382363628e-08
1.575297001e-08
1.877763008e-08
1.496935501e-08
1.402478674e-08
1.401975487e-08
9.613864717e-09
1.293036416e-08
5.585141342e-09
1.172788419e-08
1.972328206e-09
1.044022434e-08
-1.202222884e-09
9.105577536e-09
-3.936659156e-09
7.762804409e-09
-6.239137733e-09
6.433658531e-09
-8.124470319e-09
5.139583655e-09
-9.615138215e-09
3.904126119e-09
-1.074142114e-08
2.751013773e-09
-1.15409592e-08
1.702832048e-09
-1.205790814e-08
7.798299029e-10
-1.234169827e-08
-1.085372182e-12
-1.244543425e-08
-6.272060886e-10
-1.242479483e-08
-1.090411727e-09
-1.233512997e-08
-1.387726252e-09
-1.223075229e-08
-1.520667986e-09
-1.21629297e-08
-1.495263719e-09
-1.217828084e-08
-1.321235532e-09
-1.231777008e-08
-1.011230228e-09
-1.261600151e-08
-5.800903348e-10
-1.310046391e-08
-4.429870161e-11
-1.379100786e-08
5.784202143e-10
-1.469961975e-08
1.269392556e-09
-1.583037856e-08
2.009118541e-09
-1.717960483e-08
2.777283099e-09
-1.873618966e-08
3.552685688e-09
-2.048202184e-08
4.313104599e-09
-2.239245654e-08
5.035104813e-09
-2.443670251e-08
5.693843945e-09
-2.657808651e-08
6.262967978e-09
-2.877418722e-08
6.714771987e-09
-3.097692692e-08
7.02075615e-09
-3.31327621e-08
7.152702476e-09
-3.518306929e-08
7.084248795e-09
-3.706490684e-08
6.793059757e-09
-3.871236661e-08
6.263683963e-09
-4.005868059e-08
5.490565693e-09
-4.103920837e-08
4.480888175e-09
-4.159520555e-08
3.256125881e-09
-4.167758683e-08
1.851393957e-09
-4.125097523e-08
3.147054635e-10
-4.029702202e-08
-1.29177461e-09
-3.881562788e-08
-2.89949446e-09
-3.682680259e-08
-4.442489172e-09
-3.4371119e-08
-5.858580643e-09
-3.150476237e-08
-7.092367528e-09
-2.829775479e-08
-8.096775987e-09
-2.483144241e-08
-8.835013232e-09
-2.119540873e-08
-9.28245034e-09
-1.748388668e-08
-9.428145546e-09
-1.379184501e-08
-9.275716753e-09
-1.02109627e-08
-8.843295272e-09
-6.825712991e-09
-8.16243629e-09
-3.709803874e-09
-7.276025085e-09
-9.232216808e-10
-6.235279951e-09
1.489965281e-09
-5.096142342e-09
3.5027835e-09
-3.915432968e-09
5.105166956e-09
-2.746984373e-09
6.303169333e-09
-1.638354817e-09
7.118790968e-09
-6.292122841e-10
7.587699817e-09
2.52005295e-10
7.753349582e-09
9.896351674e-10
7.661766815e-09
1.579258256e-09
7.35972686e-09
2.022962674e-09
6.892751988e-09
2.328620385e-09
6.303653623e-09
2.508246237e-09
5.631482697e-09
2.576672828e-09
4.910770797e-09
2.550346774e-09
4.171106379e-09
2.446205097e-09
3.437128472e-09
2.280758235e-09
2.728755617e-09
2.069401158e-09
2.06143233e-09
1.82601337e-09
1.446497835e-09
1.562623874e-09
8.918171846e-10
1.289077072e-09
4.023802302e-10
1.013107037e-09
-1.911980426e-11
7.404745631e-10
-3.717404139e-10
4.751789129e-10
-6.558156778e-10
2.197544353e-10
-8.725525162e-10
-2.446522132e-11
-1.02370364e-09
-2.571457541e-10
-1.1113368e-09
-4.787539162e-10
-1.137754436e-09
-6.902868192e-10
-1.105382261e-09
-8.928168162e-10
-1.016641373e-09
-1.086310486e-09
-8.744067226e-10
-1.266915407e-09
-6.844222532e-10
-1.421184547e-09
-4.610781107e-10
-1.515909231e-09
-2.348084576e-10
-1.485486442e-09
-5.175559425e-11
-1.22460322e-09
-5.899936573e-10
-2.956137169e-10
1.4246308e-09
-6.744524832e-10
2.160574546e-09
-9.387101805e-10
1.842529646e-09
-1.000982443e-09
1.07315045e-09
-8.250908251e-10
1.358020683e-10
-3.930197093e-10
-8.672856043e-10
3.105441238e-10
-1.917644703e-09
1.30373895e-09
-3.026776879e-09
2.608300284e-09
-4.211192268e-09
4.248706714e-09
-5.483104537e-09
6.250741039e-09
-6.847907074e-09
8.639843629e-09
-8.303918162e-09
1.14393322e-08
-9.842369832e-09
1.466838971e-08
-1.144702693e-08
1.833977182e-08
-1.309347462e-08
2.245726932e-08
-1.474840588e-08
2.701302224e-08
-1.636930877e-08
3.198494206e-08
-1.790487927e-08
3.733451097e-08
-1.929645351e-08
4.300531129e-08
-2.048055789e-08
4.892264617e-08
-2.139253394e-08
5.499449363e-08
-2.197098346e-08
6.11139327e-08
-2.216255612e-08
6.716295217e-08
-2.192643506e-08
7.301725977e-08
-2.123784112e-08
7.855162869e-08
-2.0089983e-08
8.364514034e-08
-1.849430426e-08
8.818591557e-08
-1.647912573e-08
9.207495737e-08
-1.408706727e-08
9.522898187e-08
-1.137172643e-08
9.758201319e-08
-8.394102324e-09
9.908587618e-08
-5.219925501e-09
9.970756926e-08
-1.913218667e-09
9.943142764e-08
1.446894128e-09
9.826170782e-08
4.771790424e-09
9.622147908e-08
7.98385987e-09
9.335121877e-08
1.101373296e-08
8.970616125e-08
1.380114693e-08
8.53582975e-08
1.629479719e-08
8.038942778e-08
1.845357634e-08
7.489242005e-08
2.024546466e-08
6.896792575e-08
2.165022396e-08
6.272162169e-08
2.265843727e-08
5.626134843e-08
2.327125342e-08
4.969417245e-08
2.349966666e-08
4.312354564e-08
2.336326311e-08
3.664677124e-08
2.288855897e-08
3.035294711e-08
2.210709456e-08
2.432154389e-08
2.105356196e-08
1.862165187e-08
1.976428237e-08
1.331188598e-08
1.827639714e-08
8.440251365e-09
1.662761904e-08
4.044700401e-09
1.485625984e-08
1.57761301e-10
1.300619086e-08
-3.207463397e-09
1.113585418e-08
-6.063414913e-09
9.292636659e-09
-8.430600468e-09
7.506102144e-09
-1.033811627e-08
5.808386461e-09
-1.182412367e-08
4.23230333e-09
-1.293557419e-08
2.809233958e-09
-1.372729279e-08
1.567341394e-09
-1.426053154e-08
5.300078888e-10
-1.460099378e-08
-2.854361592e-10
-1.481747553e-08
-8.683864977e-10
-1.497803176e-08
-1.215682261e-09
-1.514895772e-08
-1.33099906e-09
-1.539227423e-08
-1.224625642e-09
-1.576384063e-08
-9.124943971e-10
-1.631175479e-08
-4.151317667e-10
-1.707505419e-08
2.433731794e-10
-1.808275543e-08
1.036248921e-09
-1.935325804e-08
1.934807788e-09
-2.089410382e-08
2.909101998e-09
-2.270216267e-08
3.928492763e-09
-2.476425578e-08
4.962135178e-09
-2.705817425e-08
5.979351865e-09
-2.955395129e-08
6.949808957e-09
-3.221517585e-08
7.843430673e-09
-3.500011609e-08
8.630049338e-09
-3.786246041e-08
9.278955426e-09
-4.075165811e-08
9.758612369e-09
-4.361293085e-08
1.003682799e-08
-4.638715192e-08
1.008159105e-08
-4.901066279e-08
9.862487552e-09
-5.141524327e-08
9.352903256e-09
-5.3528769e-08
8.533560765e-09
-5.527675797e-08
7.396379109e-09
-5.658544129e-08
5.948918053e-09
-5.738617864e-08
4.217346777e-09
-5.762014704e-08
2.246170038e-09
-5.724310644e-08
9.728904905e-11
-5.622592639e-08
-2.151395448e-09
-5.4564217e-08
-4.407597976e-09
-5.22791483e-08
-6.579643306e-09
-4.941278057e-08
-8.584300119e-09
-4.602528951e-08
-1.034780549e-08
-4.219293341e-08
-1.180669508e-08
-3.800561656e-08
-1.291020356e-08
-3.356378245e-08
-1.362282979e-08
-2.897464916e-08
-1.392654587e-08
-2.43479636e-08
-1.382216181e-08
-1.979155164e-08
-1.332950647e-08
-1.540695192e-08
-1.248626486e-08
-1.128536971e-08
-1.134553734e-08
-7.504220213e-09
-9.972281516e-09
-4.124436006e-09
-8.438925809e-09
-1.188788237e-09
-6.820518754e-09
1.27886556e-09
-5.189902141e-09
3.273279368e-09
-3.613364589e-09
4.805300288e-09
-2.14681322e-09
5.901622981e-09
-8.346730782e-10
6.604686154e-09
2.915241428e-10
6.966189492e-09
1.21800013e-09
7.039471717e-09
1.945139502e-09
6.877024741e-09
2.481620151e-09
6.528857433e-09
2.841944149e-09
6.041376251e-09
3.044569638e-09
5.456409307e-09
3.110568846e-09
4.81063818e-09
3.062083389e-09
4.135327916e-09
2.921107497e-09
3.456379443e-09
2.708463126e-09
2.794717726e-09
2.443069648e-09
2.166662471e-09
2.141607961e-09
1.584407541e-09
1.818092563e-09
1.056640689e-09
1.483796662e-09
5.891649486e-10
1.147372269e-09
1.854810445e-10
8.151098456e-10
-1.526939335e-10
4.913099442e-10
-4.249666842e-10
1.786621493e-10
-6.318654501e-10
-1.214894762e-10
-7.744471625e-10
-4.090072055e-10
-8.541142516e-10
-6.847257799e-10
-8.726609055e-10
-9.498185004e-10
-8.323673405e-10
-1.204094772e-09
-7.361662495e-10
-1.442357129e-09
-5.888667835e-10
-1.647745035e-09
-4.021972578e-10
-1.780548017e-09
-2.0477413e-10
-1.762849448e-09
-4.312676825e-11
-1.466562085e-09
-7.132540655e-10
-2.8695458e-10
1.659335854e-09
-6.431912015e-10
2.465249089e-09
-8.660460339e-10
2.01535821e-09
-8.642504428e-10
1.023734018e-09
-5.984305412e-10
-1.743774057e-10
-4.731243225e-11
-1.458685091e-09
8.082516506e-10
-2.808626528e-09
1.990765051e-09
-4.239107987e-09
3.52701929e-09
-5.770978109e-09
5.447191061e-09
-7.419896178e-09
7.783289538e-09
-9.193166993e-09
1.056731549e-08
-1.108921357e-08
1.382916571e-08
-1.309731165e-08
1.759419321e-08
-1.519686161e-08
2.188036104e-08
-1.735627295e-08
2.66950318e-08
-1.953189357e-08
3.203156576e-08
-2.166746912e-08
3.786597895e-08
-2.369464058e-08
4.415408151e-08
-2.553480465e-08
5.082952064e-08
-2.710257361e-08
5.780322335e-08
-2.831076084e-08
6.496461453e-08
-2.907658618e-08
7.218480442e-08
-2.93284096e-08
7.932162692e-08
-2.901206517e-08
8.622603634e-08
-2.80956928e-08
9.274904077e-08
-2.657225715e-08
9.874834929e-08
-2.445951073e-08
1.040941129e-07
-2.179775724e-08
1.086733818e-07
-1.86460148e-08
1.123931324e-07
-1.507731308e-08
1.151817727e-07
-1.117359985e-08
1.169890852e-07
-7.021576541e-09
1.177832632e-07
-2.703352736e-09
1.175500674e-07
1.684581533e-09
1.162943415e-07
6.034580216e-09
1.140410997e-07
1.024878316e-08
1.108339056e-07
1.423903619e-08
1.067319674e-07
1.792776877e-08
1.018132155e-07
2.124786278e-08
9.616661126e-08
2.414361883e-08
8.989430897e-08
2.656998719e-08
8.310821571e-08
2.849631311e-08
7.592725692e-08
2.990553944e-08
6.847429039e-08
3.079437936e-08
6.087273172e-08
3.117294183e-08
5.324309746e-08
3.106360358e-08
4.569970618e-08
3.049919478e-08
3.834782296e-08
2.952062312e-08
3.12814976e-08
2.817426539e-08
2.45822736e-08