/*--------------------------------*- C++ -*----------------------------------*\
| =========                 |                                                 |
| \\      /  F ield         | OpenFOAM: The Open Source CFD Toolbox           |
|  \\    /   O peration     | Version:  2412                                  |
|   \\  /    A nd           | Website:  www.openfoam.com                      |
|    \\/     M anipulation  |                                                 |
\*---------------------------------------------------------------------------*/
FoamFile
{
    version     2.0;
    format      ascii;
    arch        "LSB;label=32;scalar=64";
    class       surfaceVectorField;
    location    "0.1";
    object      rhoUf;
}
// * * * * * * * * * * * * * * * * * * * * * * * * * * * * * * * * * * * * * //

dimensions      [1 -2 -1 0 0 0 0];

internalField   nonuniform List<vector> 
23538
(
(-0.0001290829369 3.138994286e-05 0)
(-6.297128892e-05 8.522853561e-05 0)
(-0.00032974718 4.190880896e-05 0)
(-0.0003062641781 0.000157091599 0)
(-0.0005374121943 4.289293092e-05 0)
(-0.0005846701035 0.0001648280382 0)
(-0.0007225411247 3.952232182e-05 0)
(-0.000837036453 0.0001431254873 0)
(-0.0008758040264 3.509544423e-05 0)
(-0.00103700732 0.0001124044788 0)
(-0.0009947009593 3.043530842e-05 0)
(-0.001179426671 7.950553897e-05 0)
(-0.001077887644 2.551733902e-05 0)
(-0.00126216609 4.554158226e-05 0)
(-0.001123275693 2.007243766e-05 0)
(-0.001282713127 9.717975477e-06 0)
(-0.001127768938 1.384940844e-05 0)
(-0.001237102421 -2.899397578e-05 0)
(-0.001087549348 6.666983329e-06 0)
(-0.001120124174 -7.133796657e-05 0)
(-0.0009984414019 -1.585241897e-06 0)
(-0.0009258925957 -0.0001176942535 0)
(-0.000856254716 -1.094936043e-05 0)
(-0.0006483666625 -0.0001681114422 0)
(-0.0006570721974 -2.140699976e-05 0)
(-0.0002817989109 -0.0002223502861 0)
(-0.0003975362717 -3.287503977e-05 0)
(0.0001788003104 -0.000279887627 0)
(-7.516076096e-05 -4.518984197e-05 0)
(0.0007372057466 -0.0003398909315 0)
(0.0003113322794 -5.809751764e-05 0)
(0.001395485598 -0.0004011865303 0)
(0.0007616616861 -7.125074674e-05 0)
(0.002153482771 -0.0004622484325 0)
(0.001273654237 -8.421201376e-05 0)
(0.003008301289 -0.0005212122084 0)
(0.001842963468 -9.646761379e-05 0)
(0.003953849702 -0.0005759271879 0)
(0.002462887264 -0.0001074564716 0)
(0.004980504223 -0.0006240497676 0)
(0.003124319141 -0.0001166087125 0)
(0.006074949977 -0.0006631816764 0)
(0.003815872368 -0.0001233891983 0)
(0.007220253634 -0.0006910337649 0)
(0.00452417322 -0.0001273448784 0)
(0.008396191755 -0.0007056023719 0)
(0.00523432516 -0.0001281508992 0)
(0.009579839028 -0.0007053383906 0)
(0.005930509747 -0.0001256429834 0)
(0.01074638551 -0.0006892871464 0)
(0.006596671867 -0.0001198310908 0)
(0.0118701104 -0.0006571715442 0)
(0.007217214146 -0.000110898377 0)
(0.012925429 -0.0006094129216 0)
(0.007777651719 -9.918704055e-05 0)
(0.01388791793 -0.0005470848347 0)
(0.008265149376 -8.516498122e-05 0)
(0.01473522525 -0.0004718110419 0)
(0.008668954585 -6.922888892e-05 0)
(0.01544784396 -0.0003856554238 0)
(0.00898019972 -5.152500126e-05 0)
(0.01600928215 -0.000290502071 0)
(0.009191382988 -3.258521268e-05 0)
(0.01640668961 -0.0001877205896 0)
(0.009298595839 -1.359877515e-05 0)
(0.01663153717 -8.094262511e-05 0)
(0.009302595904 4.475083533e-06 0)
(0.01667895545 2.511751214e-05 0)
(0.009207334388 2.112877513e-05 0)
(0.01655187958 0.0001271933913 0)
(0.009019313036 3.598960032e-05 0)
(0.01625774849 0.0002226566439 0)
(0.008747048318 4.880775981e-05 0)
(0.0158080092 0.000309397982 0)
(0.008400493018 5.943056376e-05 0)
(0.01521723924 0.0003858455496 0)
(0.007990849703 6.780907266e-05 0)
(0.0145026328 0.0004508611028 0)
(0.007529512333 7.397522919e-05 0)
(0.0136831015 0.00050389918 0)
(0.00702815886 7.802980623e-05 0)
(0.012778164 0.0005446966981 0)
(0.006498197169 8.014863236e-05 0)
(0.01180792488 0.0005734740273 0)
(0.005950498665 8.05336867e-05 0)
(0.01079211692 0.0005907482514 0)
(0.005395180486 7.93998848e-05 0)
(0.009749707471 0.0005972701664 0)
(0.004841490593 7.695704068e-05 0)
(0.008698526616 0.0005939389084 0)
(0.004297766325 7.339670878e-05 0)
(0.007655031654 0.0005817143385 0)
(0.003771457334 6.888138818e-05 0)
(0.006634193459 0.0005615469107 0)
(0.003269196799 6.354225273e-05 0)
(0.005649486173 0.000534334536 0)
(0.002796842423 5.748214863e-05 0)
(0.004712896269 0.0005009331411 0)
(0.002359488207 5.076816983e-05 0)
(0.003834952524 0.0004622017783 0)
(0.001961425078 4.354330604e-05 0)
(0.003024816657 0.0004190342592 0)
(0.001605722374 3.61199289e-05 0)
(0.002289655502 0.0003727361183 0)
(0.001294027531 2.867568818e-05 0)
(0.001634190144 0.0003248125043 0)
(0.001027508807 2.107541537e-05 0)
(0.001061626538 0.0002758178621 0)
(0.0008075243991 1.322466971e-05 0)
(0.0005736838079 0.0002256348764 0)
(0.000634935619 5.211811709e-06 0)
(0.0001718124205 0.0001748287332 0)
(0.0005098633509 -2.82417578e-06 0)
(-0.0001438605534 0.0001242054231 0)
(0.000431589832 -1.07205694e-05 0)
(-0.0003746973748 7.466471582e-05 0)
(0.000398517012 -1.829913352e-05 0)
(-0.0005236099377 2.714887508e-05 0)
(0.0004081587231 -2.537176655e-05 0)
(-0.0005950652539 -1.739822568e-05 0)
(0.0004571853972 -3.174903226e-05 0)
(-0.0005950138613 -5.807149943e-05 0)
(0.0005415031043 -3.724996054e-05 0)
(-0.0005307421845 -9.405120914e-05 0)
(0.0006563731944 -4.170598415e-05 0)
(-0.0004106548746 -0.0001246382259 0)
(0.0007964996718 -4.495975777e-05 0)
(-0.0002440640215 -0.0001492680372 0)
(0.0009562505579 -4.685777502e-05 0)
(-4.093128191e-05 -0.0001675280353 0)
(0.001129765188 -4.726590734e-05 0)
(0.0001885777757 -0.0001791092083 0)
(0.00131102482 -4.608602314e-05 0)
(0.0004342264126 -0.0001838603389 0)
(0.001493998088 -4.323768282e-05 0)
(0.0006858401459 -0.0001817489304 0)
(0.001672682278 -3.864278975e-05 0)
(0.0009335478332 -0.0001727999947 0)
(0.001841118914 -3.222399599e-05 0)
(0.001167808066 -0.0001570734573 0)
(0.001993386472 -2.392285539e-05 0)
(0.001379486103 -0.0001346450258 0)
(0.002123625556 -1.372349384e-05 0)
(0.001559953583 -0.000105642037 0)
(0.002226102867 -1.662624748e-06 0)
(0.001701015996 -7.028069503e-05 0)
(0.002295292211 1.215851169e-05 0)
(0.001795030129 -2.889004752e-05 0)
(0.002326021943 2.756002504e-05 0)
(0.001835023717 1.802900804e-05 0)
(0.002313687522 4.426922233e-05 0)
(0.001814902448 6.97459671e-05 0)
(0.002254522022 6.190893502e-05 0)
(0.001729736199 0.000125238424 0)
(0.002145930857 7.999728707e-05 0)
(0.001576138343 0.0001831482422 0)
(0.001986838759 9.796092047e-05 0)
(0.001352695066 0.0002417689674 0)
(0.001778038547 0.0001151608008 0)
(0.001060416888 0.0002990612719 0)
(0.00152247956 0.0001309245523 0)
(0.0007031699324 0.0003527149466 0)
(0.00122547869 0.0001445822023 0)
(0.000288028464 0.0004002441283 0)
(0.0008947912494 0.0001555113594 0)
(-0.0001745111851 0.0004391169555 0)
(0.0005405227904 0.0001631863896 0)
(-0.0006705277887 0.0004669353999 0)
(0.0001748158358 0.0001672241431 0)
(-0.00118293759 0.0004816376412 0)
(-0.0001886831363 0.0001674245061 0)
(-0.001692081513 0.000481733358 0)
(-0.0005355970169 0.0001638002165 0)
(-0.002176669641 0.0004665221606 0)
(-0.0008517339435 0.0001565828155 0)
(-0.002615050635 0.0004362469671 0)
(-0.001124029417 0.0001461957093 0)
(-0.002986642754 0.0003920989034 0)
(-0.001341370178 0.0001332142951 0)
(-0.003273275263 0.0003361072463 0)
(-0.001495323706 0.000118363299 0)
(-0.003460340384 0.0002710318819 0)
(-0.001580962592 0.0001025191075 0)
(-0.003538064832 0.0002003659241 0)
(-0.001597141684 8.660573227e-05 0)
(-0.003502431468 0.0001281401136 0)
(-0.001546706423 7.143277865e-05 0)
(-0.003355575995 5.827832399e-05 0)
(-0.001435735904 5.762701118e-05 0)
(-0.003105106967 -5.906593517e-06 0)
(-0.001272913661 4.564266701e-05 0)
(-0.002763466325 -6.17529285e-05 0)
(-0.001069008994 3.576401109e-05 0)
(-0.00234667276 -0.0001071120633 0)
(-0.0008363403047 2.812029534e-05 0)
(-0.001873848449 -0.0001403944475 0)
(-0.0005880570231 2.271203572e-05 0)
(-0.001366449316 -0.0001607264692 0)
(-0.0003373799744 1.941525951e-05 0)
(-0.000846911978 -0.0001680019123 0)
(-9.681465239e-05 1.798257606e-05 0)
(-0.0003373811832 -0.0001629142434 0)
(0.000122594885 1.806099024e-05 0)
(0.0001415881744 -0.0001469056217 0)
(0.0003118654455 1.922858115e-05 0)
(0.0005721976789 -0.000122032138 0)
(0.0004644918627 2.103918698e-05 0)
(0.0009403329945 -9.076076168e-05 0)
(0.0005766108829 2.305852684e-05 0)
(0.001236153525 -5.572892865e-05 0)
(0.0006469360881 2.489486699e-05 0)
(0.001454351775 -1.951084146e-05 0)
(0.0006764663265 2.623796077e-05 0)
(0.001593904851 1.560541408e-05 0)
(0.0006681173381 2.687943568e-05 0)
(0.00165760713 4.771187452e-05 0)
(0.0006262556969 2.669485227e-05 0)
(0.001651379244 7.537316377e-05 0)
(0.0005562477456 2.563078682e-05 0)
(0.001583453458 9.761231195e-05 0)
(0.0004640002172 2.370544488e-05 0)
(0.001463610201 0.0001139137142 0)
(0.0003555569557 2.09942251e-05 0)
(0.001302426193 0.0001241770309 0)
(0.0002367707192 1.760936529e-05 0)
(0.001110619349 0.0001286324301 0)
(0.0001130639263 1.368577438e-05 0)
(0.0008985288105 0.0001277628376 0)
(-1.075998028e-05 9.372532938e-06 0)
(0.0006757061557 0.0001222276357 0)
(-0.000130620733 4.819061531e-06 0)
(0.000450628695 0.0001128017693 0)
(-0.0002432061842 1.614021003e-07 0)
(0.0002305294189 0.0001002939758 0)
(-0.0003459574643 -4.480290584e-06 0)
(2.133147561e-05 8.549786879e-05 0)
(-0.0004370354747 -9.00205446e-06 0)
(-0.0001723394103 6.916067066e-05 0)
(-0.0005152475914 -1.33203866e-05 0)
(-0.0003470926193 5.195706095e-05 0)
(-0.0005799630879 -1.737339579e-05 0)
(-0.0005006556026 3.446186666e-05 0)
(-0.0006310147173 -2.11172941e-05 0)
(-0.0006317219661 1.714622958e-05 0)
(-0.0006686006401 -2.45270306e-05 0)
(-0.0007397876406 3.770063129e-07 0)
(-0.000693187274 -2.759697438e-05 0)
(-0.0008249818366 -1.558369782e-05 0)
(-0.0007054233427 -3.033420114e-05 0)
(-0.0008879028536 -3.0570256e-05 0)
(-0.0007060553171 -3.275375275e-05 0)
(-0.0009294686699 -4.449394886e-05 0)
(-0.0006958704779 -3.487965886e-05 0)
(-0.0009507887112 -5.733849277e-05 0)
(-0.0006756379153 -3.674559194e-05 0)
(-0.0009530525907 -6.913986624e-05 0)
(-0.0006460686895 -3.839200211e-05 0)
(-0.0009374456798 -7.997920954e-05 0)
(-0.0006077830034 -3.986183243e-05 0)
(-0.000905080765 -8.997477606e-05 0)
(-0.0005612866524 -4.120122756e-05 0)
(-0.0008569440023 -9.927823227e-05 0)
(-0.0005069403411 -4.245744183e-05 0)
(-0.000793840658 -0.0001080616234 0)
(-0.0004449355382 -4.367113672e-05 0)
(-0.0007163575971 -0.0001164880826 0)
(-0.0003753049167 -4.487365784e-05 0)
(-0.0006248956184 -0.0001246504858 0)
(-0.0002981447512 -4.606850239e-05 0)
(-0.0005198654597 -0.0001324569313 0)
(-0.0002143747405 -4.70684671e-05 0)
(-0.0004022906774 -0.000139280071 0)
(-0.0001276156603 -4.70970855e-05 0)
(-0.0002753436586 -0.0001429787818 0)
(-4.739347076e-05 -4.389112745e-05 0)
(-0.0001469555449 -0.0001382006622 0)
(6.480307699e-06 -3.096085618e-05 0)
(-3.70610286e-05 -0.0001141115797 0)
(1.365689454e-05 -5.37291888e-05 0)
(-0.0002238739764 0.0002307841855 0)
(-8.012729831e-05 0.0002656062034 0)
(-0.0005594314468 0.0002986465817 0)
(-0.000401700971 0.0004492598868 0)
(-0.0008857223263 0.0002815990397 0)
(-0.0007493993298 0.0004484911379 0)
(-0.001152283981 0.0002300798472 0)
(-0.001043597186 0.000368070924 0)
(-0.001341444721 0.0001680718394 0)
(-0.001248303977 0.000261205837 0)
(-0.001447731981 0.0001028740289 0)
(-0.001355482631 0.0001469628111 0)
(-0.001467940361 3.48463821e-05 0)
(-0.001361252841 2.873155897e-05 0)
(-0.001397684897 -3.763012536e-05 0)
(-0.001261297816 -9.548307265e-05 0)
(-0.001230863177 -0.0001161429657 0)
(-0.001049449203 -0.0002284570502 0)
(-0.0009601858573 -0.0002016536891 0)
(-0.0007178970144 -0.0003721537037 0)
(-0.00057787757 -0.0002944756234 0)
(-0.0002578786957 -0.0005274691643 0)
(-7.632961105e-05 -0.0003943678853 0)
(0.0003394663311 -0.0006943190527 0)
(0.0005512894098 -0.0005005561169 0)
(0.001082418004 -0.0008717226365 0)
(0.001310403711 -0.0006117067746 0)
(0.001977931565 -0.00105779413 0)
(0.002204395768 -0.0007258892022 0)
(0.003030924579 -0.001249698206 0)
(0.003233926848 -0.0008405420108 0)
(0.00424350565 -0.00144358577 0)
(0.004396254733 -0.0009524796844 0)
(0.005614164423 -0.001634565694 0)
(0.005684593868 -0.001057958123 0)
(0.007136982416 -0.001816768532 0)
(0.007087602397 -0.001152812343 0)
(0.008800934038 -0.001983511776 0)
(0.008589060892 -0.00123267013 0)
(0.010589375 -0.002127595088 0)
(0.01016782867 -0.001293226281 0)
(0.01247981174 -0.002241707041 0)
(0.01179812385 -0.001330552742 0)
(0.01444402789 -0.002318911238 0)
(0.01345014471 -0.001341410427 0)
(0.01644860637 -0.002353165653 0)
(0.01509100962 -0.001323524716 0)
(0.01845585182 -0.002339811247 0)
(0.01668595113 -0.001275784096 0)
(0.02042506337 -0.002275966631 0)
(0.01819966438 -0.001198332301 0)
(0.02231404701 -0.002160767991 0)
(0.01959768728 -0.001092542661 0)
(0.02408074157 -0.001995428377 0)
(0.0208476929 -0.0009608760699 0)
(0.02568481466 -0.001783105074 0)
(0.02192057544 -0.0008066479307 0)
(0.02708907899 -0.00152859778 0)
(0.02279121044 -0.0006336237656 0)
(0.02826078162 -0.001237918071 0)
(0.02343958269 -0.0004453735332 0)
(0.02917226531 -0.0009180420769 0)
(0.02385074639 -0.0002465447018 0)
(0.02980089363 -0.0005754163752 0)
(0.02401524862 -4.421390675e-05 0)
(0.0301346347 -0.0002191861029 0)
(0.02393126916 0.0001543109274 0)
(0.03016274058 0.0001382519714 0)
(0.02360492462 0.0003432631395 0)
(0.02988736806 0.000485627544 0)
(0.02304862872 0.0005180754242 0)
(0.02931863759 0.0008139237881 0)
(0.02227999501 0.0006751633127 0)
(0.02847357201 0.001115729764 0)
(0.02132067846 0.0008118608795 0)
(0.02737493764 0.00138520707 0)
(0.02019591389 0.0009264616317 0)
(0.02605040643 0.001617965968 0)
(0.01893243891 0.001018091028 0)
(0.0245315183 0.001811319171 0)
(0.01755838197 0.001086608845 0)
(0.02285142059 0.001963715542 0)
(0.01610211307 0.001132603195 0)
(0.02104513952 0.00207506855 0)
(0.01459146873 0.001157187288 0)
(0.01914779608 0.002146390217 0)
(0.01305311596 0.001161854555 0)
(0.01719385735 0.002179592395 0)
(0.01151207891 0.001148318506 0)
(0.01521635169 0.002177240213 0)
(0.009991433458 0.001118367457 0)
(0.01324627876 0.002142294915 0)
(0.00851215478 0.001073759541 0)
(0.01131220933 0.002077884565 0)
(0.007093074588 0.001016187324 0)
(0.009440067685 0.001987147625 0)
(0.005750870359 0.0009473244504 0)
(0.007652998473 0.001873196645 0)
(0.004499994684 0.0008689262366 0)
(0.005971302741 0.001739214845 0)
(0.003352516368 0.0007831451002 0)
(0.004412680416 0.001588589596 0)
(0.002317698877 0.000692566157 0)
(0.002991403135 0.001425529835 0)
(0.001401497617 0.0005991100576 0)
(0.001717550399 0.001254938806 0)
(0.0006072536489 0.000503399713 0)
(0.0005988820761 0.001080064927 0)
(-6.273635235e-05 0.0004060506849 0)
(-0.0003629589385 0.0009019071558 0)
(-0.0006078239269 0.0003084025847 0)
(-0.001166583374 0.0007227458776 0)
(-0.001029368329 0.0002120843433 0)
(-0.001813213091 0.0005454594592 0)
(-0.001330917544 0.0001188472019 0)
(-0.002306849486 0.0003731909252 0)
(-0.00151824531 3.04751455e-05 0)
(-0.002654319417 0.0002091677056 0)
(-0.001599279485 -5.129746729e-05 0)
(-0.002865222888 5.654521181e-05 0)
(-0.001583924547 -0.0001248675651 0)
(-0.00295174007 -8.174154607e-05 0)
(-0.001483785677 -0.0001888361689 0)
(-0.002928309263 -0.0002031141644 0)
(-0.001311822384 -0.0002420550997 0)
(-0.002811185738 -0.000305462452 0)
(-0.001082043332 -0.0002836659301 0)
(-0.002618005729 -0.0003871967139 0)
(-0.0008089112775 -0.0003130859734 0)
(-0.002367308542 -0.0004473410197 0)
(-0.0005069814744 -0.0003299816649 0)
(-0.002077593167 -0.0004854171278 0)
(-0.0001906743886 -0.0003342512634 0)
(-0.001767182139 -0.0005014317575 0)
(0.0001260062218 -0.0003259522159 0)
(-0.001453826748 -0.0004957492557 0)
(0.0004296466236 -0.0003052352955 0)
(-0.001154290474 -0.0004689877137 0)
(0.0007075507299 -0.0002723193004 0)
(-0.0008842266823 -0.0004219463724 0)
(0.0009478568801 -0.0002274891081 0)
(-0.0006579210118 -0.0003555822517 0)
(0.001139573591 -0.0001711197543 0)
(-0.000488132945 -0.0002709633282 0)
(0.001272592042 -0.0001037345757 0)
(-0.000386202367 -0.0001692956531 0)
(0.001337798939 -2.60911145e-05 0)
(-0.0003619015118 -5.203392091e-05 0)
(0.001327272178 6.07117249e-05 0)
(-0.0004233091393 7.897986356e-05 0)
(0.001234567149 0.0001551232559 0)
(-0.0005766014141 0.0002213612178 0)
(0.001055103393 0.0002550452088 0)
(-0.0008257570592 0.0003720322002 0)
(0.0007866553058 0.0003577692976 0)
(-0.001172170173 0.0005271050894 0)
(0.0004298699304 0.0004599683381 0)
(-0.001614196393 0.0006818079779 0)
(-1.117257843e-05 0.000557754607 0)
(-0.002146663277 0.0008305153418 0)
(-0.0005284762639 0.0006468089384 0)
(-0.002760393756 0.0009668654542 0)
(-0.001109771866 0.0007225813829 0)
(-0.003441815631 0.001083998325 0)
(-0.001738374746 0.0007805679496 0)
(-0.004172737568 0.001174904566 0)
(-0.002393347179 0.0008166613537 0)
(-0.004930392509 0.0012328989 0)
(-0.003050042565 0.0008275608973 0)
(-0.005687833383 0.001252212007 0)
(-0.00368110638 0.0008112012747 0)
(-0.006414770459 0.001228668102 0)
(-0.004257927207 0.0007671079757 0)
(-0.007078900039 0.001160351164 0)
(-0.004752417083 0.0006965551964 0)
(-0.007647693238 0.001048075657 0)
(-0.005138863221 0.0006024817346 0)
(-0.008090471922 0.0008954717851 0)
(-0.005395630253 0.000489298081 0)
(-0.008380418534 0.0007087045781 0)
(-0.005506675646 0.000362760535 0)
(-0.008496284978 0.0004961977596 0)
(-0.005463167032 0.000229788432 0)
(-0.008424328879 0.0002685854288 0)
(-0.005264223552 9.778506229e-05 0)
(-0.008159927156 3.817304933e-05 0)
(-0.004916963166 -2.637604438e-05 0)
(-0.007708370739 -0.0001832747072 0)
(-0.004435374789 -0.0001370967255 0)
(-0.007082893518 -0.0003854806884 0)
(-0.003839263474 -0.0002300348796 0)
(-0.006303182232 -0.0005598989166 0)
(-0.003153062305 -0.0003016961196 0)
(-0.005396401434 -0.0006996933371 0)
(-0.002405049921 -0.0003495916994 0)
(-0.004395042826 -0.0007993711933 0)
(-0.001625966166 -0.0003726464185 0)
(-0.003335422601 -0.0008555541572 0)
(-0.000847195656 -0.0003713280152 0)
(-0.002255799918 -0.0008674464992 0)
(-9.895172106e-05 -0.0003476034612 0)
(-0.001194351639 -0.000836876328 0)
(0.0005914468904 -0.0003047580703 0)
(-0.0001871223634 -0.000768151807 0)
(0.001201060111 -0.000247081071 0)
(0.0007338914564 -0.0006676944388 0)
(0.001712448023 -0.0001794494296 0)
(0.001542370551 -0.0005434663152 0)
(0.002114335056 -0.0001068625979 0)
(0.002218842039 -0.0004042626625 0)
(0.002401684432 -3.397195849e-05 0)
(0.00275136246 -0.0002588995502 0)
(0.002575291914 3.521000709e-05 0)
(0.00313558404 -0.0001154925504 0)
(0.00264100718 9.74132925e-05 0)
(0.003374259731 1.898845209e-05 0)
(0.002608594437 0.0001502091761 0)
(0.003476320547 0.0001391975856 0)
(0.002490717653 0.000192071335 0)
(0.003455063968 0.0002412684406 0)
(0.002301836761 0.0002223249884 0)
(0.003326933666 0.0003229156133 0)
(0.002057204304 0.000241016088 0)
(0.003110197845 0.0003832661508 0)
(0.001772026272 0.0002487621787 0)
(0.002823805055 0.0004226355114 0)
(0.001460778646 0.000246609238 0)
(0.002486433 0.000442271604 0)
(0.001136685184 0.0002358983385 0)
(0.002115670423 0.0004441397456 0)
(0.0008113655131 0.0002181249325 0)
(0.001727600901 0.0004306539522 0)
(0.0004946627694 0.0001948187341 0)
(0.001336310599 0.0004044455835 0)
(0.0001945699646 0.0001674633667 0)
(0.0009536828311 0.0003681979767 0)
(-8.274163674e-05 0.0001374335948 0)
(0.0005893695098 0.0003245165447 0)
(-0.0003328065987 0.0001059461885 0)
(0.0002508330572 0.0002758020567 0)
(-0.0005526782275 7.403202006e-05 0)
(-5.649421338e-05 0.0002241684725 0)
(-0.00074071475 4.252270385e-05 0)
(-0.0003289854655 0.0001714039484 0)
(-0.0008963457683 1.205082701e-05 0)
(-0.0005645575372 0.0001189481002 0)
(-0.00101983367 -1.693971378e-05 0)
(-0.0007623878336 6.789536844e-05 0)
(-0.001112050809 -4.417537376e-05 0)
(-0.0009226287324 1.901191247e-05 0)
(-0.001174276626 -6.952876227e-05 0)
(-0.001046141538 -2.722640021e-05 0)
(-0.001208019626 -9.299058858e-05 0)
(-0.001134261215 -7.0588619e-05 0)
(-0.001214888463 -0.0001146428696 0)
(-0.001188599627 -0.0001110366759 0)
(-0.001196477001 -0.0001346437492 0)
(-0.001210887865 -0.0001486795668 0)
(-0.001154264791 -0.0001532225321 0)
(-0.001202846977 -0.0001837549033 0)
(-0.001089530328 -0.0001706782293 0)
(-0.001166102506 -0.0002166294532 0)
(-0.001003294673 -0.0001873515197 0)
(-0.00110206359 -0.0002477975847 0)
(-0.0008963549479 -0.0002035006165 0)
(-0.001011857779 -0.0002777832978 0)
(-0.0007695127953 -0.0002189963275 0)
(-0.0008964201028 -0.0003067771038 0)
(-0.0006241590022 -0.0002327351821 0)
(-0.0007569194009 -0.0003338644621 0)
(-0.000463535238 -0.0002415791089 0)
(-0.0005957693224 -0.0003557847563 0)
(-0.0002952976171 -0.0002386214303 0)
(-0.0004186264794 -0.0003651414385 0)
(-0.000136192156 -0.0002108286408 0)
(-0.0002371084421 -0.0003479766586 0)
(-1.841990198e-05 -0.0001382248572 0)
(-7.712624124e-05 -0.0002808632802 0)
(1.089853485e-05 -0.0001308554261 0)
(-0.0002407530886 0.0004852101551 0)
(-8.186086279e-05 0.0004635710839 0)
(-0.0005898204072 0.0006007780756 0)
(-0.0004061861102 0.0007557479017 0)
(-0.0009087786948 0.0005367639826 0)
(-0.0007383188774 0.0007255271085 0)
(-0.001140205051 0.0004010099881 0)
(-0.0009943997948 0.0005586201153 0)
(-0.001263069882 0.0002418529467 0)
(-0.001135025626 0.0003445641497 0)
(-0.001269820796 7.44658689e-05 0)
(-0.001150267745 0.0001158828385 0)
(-0.001155551868 -0.0001001162256 0)
(-0.001034531636 -0.0001214024619 0)
(-0.0009142025409 -0.0002850239327 0)
(-0.0007818910906 -0.0003704508164 0)
(-0.000537877451 -0.0004833836106 0)
(-0.0003844092061 -0.0006359050294 0)
(-1.728408986e-05 -0.0006971056801 0)
(0.000167699219 -0.0009211454832 0)
(0.0006574376601 -0.0009267026072 0)
(0.0008852863886 -0.001227680567 0)
(0.001495837238 -0.001171345224 0)
(0.001779279971 -0.001555148179 0)
(0.00250632605 -0.001428938358 0)
(0.002859817535 -0.001901473903 0)
(0.003695371355 -0.001696093684 0)
(0.004135366004 -0.002262878622 0)
(0.005066642139 -0.001968054022 0)
(0.005611802922 -0.00263377903 0)
(0.006620105564 -0.002238635919 0)
(0.007291423769 -0.003006674788 0)
(0.008351104198 -0.002500256709 0)
(0.009171893931 -0.003372109608 0)
(0.01024950874 -0.002744097479 0)
(0.01124522061 -0.003718784129 0)
(0.01229901989 -0.002960427254 0)
(0.01349683621 -0.004033887859 0)
(0.01447673553 -0.003139089615 0)
(0.01590491759 -0.004303651981 0)
(0.01675309046 -0.003270123472 0)
(0.01844006628 -0.004514113697 0)
(0.01909221795 -0.003344460337 0)
(0.02106545422 -0.004652036791 0)
(0.02145277758 -0.003354621915 0)
(0.02373748868 -0.004705888699 0)
(0.02378920747 -0.003295330381 0)
(0.02640700064 -0.004666755593 0)
(0.02605332288 -0.003163947312 0)
(0.02902089203 -0.004529078038 0)
(0.02819611069 -0.002960680908 0)
(0.03152409812 -0.0042911045 0)
(0.03016958593 -0.002688537238 0)
(0.0338616922 -0.003955001422 0)
(0.03192853436 -0.00235302932 0)
(0.03598095123 -0.003526622344 0)
(0.03343202942 -0.001961695871 0)
(0.03783320748 -0.003014983195 0)
(0.03464462974 -0.001523674486 0)
(0.03937538704 -0.002431518853 0)
(0.03553728627 -0.001048791209 0)
(0.04057163913 -0.001789553024 0)
(0.03608880464 -0.0005481680121 0)
(0.04139150401 -0.001103370285 0)
(0.03628525154 -3.628561648e-05 0)
(0.04181807474 -0.0003893860275 0)
(0.03612151647 0.0004705148645 0)
(0.04183774341 0.0003311420316 0)
(0.03560335768 0.0009576745659 0)
(0.04144951945 0.001036007423 0)
(0.03474541549 0.001413348933 0)
(0.04066424689 0.001707211941 0)
(0.03357000934 0.001827872645 0)
(0.03950151485 0.002329545425 0)
(0.03210568337 0.00219368435 0)
(0.03798874856 0.002890595372 0)
(0.03038689422 0.002505409285 0)
(0.03616023016 0.003380648253 0)
(0.02845111202 0.002759686796 0)
(0.03405646063 0.003793036421 0)
(0.02633867846 0.002955023575 0)
(0.03172055698 0.004123488709 0)
(0.02409125238 0.003091755283 0)
(0.0291992277 0.004370508554 0)
(0.02175059376 0.003171698658 0)
(0.02654020049 0.004534940704 0)
(0.01935751536 0.003197842375 0)
(0.0237911668 0.004619621066 0)
(0.01695100206 0.00317400226 0)
(0.02099857975 0.004628962023 0)
(0.01456752824 0.003104482877 0)
(0.01820665311 0.004568493571 0)
(0.01224058998 0.002993798178 0)
(0.01545657586 0.00444442203 0)
(0.01000042187 0.00284651313 0)
(0.01278597471 0.004263267024 0)
(0.00787386414 0.002667256798 0)
(0.01022855698 0.004031671779 0)
(0.005884265558 0.002460866276 0)
(0.007813890757 0.003756452831 0)
(0.004051343426 0.002232794376 0)
(0.005567826398 0.003444754916 0)
(0.002391199827 0.001989490274 0)
(0.003511822746 0.003104527541 0)
(0.0009151590308 0.001737145816 0)
(0.001661469008 0.002745554975 0)
(-0.0003715923223 0.001479506392 0)
(3.113908791e-05 0.002377314567 0)
(-0.001467285087 0.001219267433 0)
(-0.001378381554 0.002004290064 0)
(-0.002372627553 0.0009601904393 0)
(-0.002566988218 0.001631308622 0)
(-0.003091501768 0.000706672815 0)
(-0.003538057778 0.001264472982 0)
(-0.003631172393 0.0004633358644 0)
(-0.004298950601 0.0009103649725 0)
(-0.004002285149 0.0002347780772 0)
(-0.004860994217 0.0005756399994 0)
(-0.004218687256 2.535672387e-05 0)
(-0.00523936438 0.0002667038395 0)
(-0.00429708991 -0.0001610151986 0)
(-0.005452761909 -1.059291241e-05 0)
(-0.00425659217 -0.000321045494 0)
(-0.005522914789 -0.0002512248366 0)
(-0.004118102496 -0.0004521764612 0)
(-0.005473902691 -0.0004512187859 0)
(-0.003903828996 -0.0005527073292 0)
(-0.005331521116 -0.0006077391904 0)
(-0.003636293393 -0.0006217729384 0)
(-0.005122446912 -0.0007193577581 0)
(-0.00333780294 -0.0006592167791 0)
(-0.00487318266 -0.0007857370803 0)
(-0.003030028902 -0.0006654975836 0)
(-0.004609517933 -0.0008075563758 0)
(-0.002733476794 -0.000641531074 0)
(-0.004355944706 -0.0007863397686 0)
(-0.002467141818 -0.0005885729834 0)
(-0.004135136776 -0.000724220521 0)
(-0.002248246032 -0.0005081605016 0)
(-0.003967401249 -0.0006238089638 0)
(-0.002092007586 -0.0004020291259 0)
(-0.003870392842 -0.0004881323903 0)
(-0.002011560517 -0.0002720625744 0)
(-0.003859125619 -0.000320441366 0)
(-0.002017909713 -0.0001203846715 0)
(-0.003945708163 -0.0001241940546 0)
(-0.002119819316 5.047278365e-05 0)
(-0.004139280133 9.675381169e-05 0)
(-0.002323652047 0.0002373861582 0)
(-0.004445907519 0.0003379777536 0)
(-0.002633148092 0.0004364439559 0)
(-0.004868461514 0.0005942744829 0)
(-0.00304913052 0.0006427706126 0)
(-0.005406462238 0.0008594483554 0)
(-0.003569143834 0.0008504005389 0)
(-0.006055879313 0.001126137883 0)
(-0.004187040321 0.001052243308 0)
(-0.006808882522 0.001385711992 0)
(-0.004892555052 0.001240173883 0)
(-0.007653553784 0.001628289101 0)
(-0.005670922861 0.001405261755 0)
(-0.008573600806 0.001842918853 0)
(-0.006502629662 0.00153815669 0)
(-0.009548127193 0.002017939842 0)
(-0.007363372032 0.001629638646 0)
(-0.01055154121 0.002141551596 0)
(-0.008224334059 0.001671332415 0)
(-0.01155370902 0.002202587325 0)
(-0.009052873758 0.001656571361 0)
(-0.01252043715 0.002191497818 0)
(-0.009813697247 0.001581316261 0)
(-0.01341439572 0.002101517709 0)
(-0.01047053853 0.001444938286 0)
(-0.01419653057 0.001929815944 0)
(-0.01098823627 0.001250616379 0)
(-0.01482796448 0.001678365167 0)
(-0.01133498034 0.001005220988 0)
(-0.01527232003 0.001354185342 0)
(-0.01148440615 0.0007189300517 0)
(-0.01549806908 0.0009689195191 0)
(-0.01141751636 0.0004050011562 0)
(-0.015480458 0.0005383795128 0)
(-0.01112478524 7.963552289e-05 0)
(-0.01520373845 8.257598836e-05 0)
(-0.01060751522 -0.0002401794969 0)
(-0.01466477386 -0.0003750372666 0)
(-0.009877233248 -0.0005395936188 0)
(-0.01387095106 -0.0008127364475 0)
(-0.008953144881 -0.0008058513538 0)
(-0.01283815379 -0.001212439947 0)
(-0.007862389928 -0.001027659876 0)
(-0.01159318392 -0.001557612543 0)
(-0.006640053707 -0.001195860441 0)
(-0.01017164428 -0.001833408827 0)
(-0.005326691883 -0.001304101487 0)
(-0.008616184769 -0.002028791698 0)
(-0.003966165142 -0.001349355313 0)
(-0.006974366249 -0.002137014175 0)
(-0.002603543563 -0.00133220506 0)
(-0.0052966072 -0.002156013863 0)
(-0.00128284655 -0.001256821496 0)
(-0.003633800594 -0.002088610142 0)
(-4.48012737e-05 -0.001130645187 0)
(-0.002034873281 -0.001942360041 0)
(0.001075213181 -0.0009637607534 0)
(-0.0005444185709 -0.001729002013 0)
(0.00204885006 -0.0007680296293 0)
(0.0007994313278 -0.001463512605 0)
(0.002855970842 -0.0005560553069 0)
(0.00196669828 -0.00116289808 0)
(0.003485306387 -0.0003401645435 0)
(0.002936761809 -0.0008448432021 0)
(0.003934541547 -0.000131505888 0)
(0.003698869195 -0.0005264279868 0)
(0.004209529891 6.088258222e-05 0)
(0.00425177327 -0.0002228048674 0)
(0.004322673328 0.0002302750139 0)
(0.004603706198 5.411718916e-05 0)
(0.004291098551 0.0003720628614 0)
(0.00477014402 0.0002957436311 0)
(0.004135059023 0.0004837568849 0)
(0.004771651293 0.0004966634447 0)
(0.003876516047 0.0005647506742 0)
(0.00463184826 0.000654307024 0)
(0.003537881832 0.0006159982 0)
(0.004375839377 0.000768561104 0)
(0.003140973678 0.0006396577112 0)
(0.004028896616 0.000841299175 0)
(0.002706241151 0.0006387399697 0)
(0.003615355167 0.0008758874489 0)
(0.00225219985 0.0006167858984 0)
(0.003157923042 0.0008767226933 0)
(0.001794989031 0.0005775911973 0)
(0.002676980641 0.0008488466746 0)
(0.001348164177 0.0005249706957 0)
(0.002190155922 0.0007975713275 0)
(0.0009226570443 0.0004625598145 0)
(0.001712288026 0.0007281605672 0)
(0.0005268887558 0.0003936573192 0)
(0.001255388046 0.0006455579118 0)
(0.0001669773293 0.0003211335611 0)
(0.0008286895019 0.0005542061981 0)
(-0.0001530129807 0.0002473857286 0)
(0.0004389189539 0.0004579562254 0)
(-0.0004307479446 0.0001743151617 0)
(9.060479951e-05 0.0003599941372 0)
(-0.00066529745 0.0001033376127 0)
(-0.000213582875 0.0002628117594 0)
(-0.0008568035438 3.54237672e-05 0)
(-0.000472463541 0.0001682503823 0)
(-0.001006186738 -2.884645712e-05 0)
(-0.0006859920623 7.755376577e-05 0)
(-0.001114881951 -8.921644462e-05 0)
(-0.0008549458033 -8.549890341e-06 0)
(-0.0011846184 -0.0001456828676 0)
(-0.000980649576 -8.974807945e-05 0)
(-0.001217262333 -0.0001984368837 0)
(-0.001064755986 -0.0001660518577 0)
(-0.001214690601 -0.0002478371798 0)