/*--------------------------------*- C++ -*----------------------------------*\
| =========                 |                                                 |
| \\      /  F ield         | OpenFOAM: The Open Source CFD Toolbox           |
|  \\    /   O peration     | Version:  2412                                  |
|   \\  /    A nd           | Website:  www.openfoam.com                      |
|    \\/     M anipulation  |                                                 |
\*---------------------------------------------------------------------------*/
FoamFile
{
    version     2.0;
    format      ascii;
    arch        "LSB;label=32;scalar=64";
    class       volScalarField;
    location    "0.1";
    object      T;
}
// * * * * * * * * * * * * * * * * * * * * * * * * * * * * * * * * * * * * * //

dimensions      [0 0 0 1 0 0 0];

internalField   nonuniform List<scalar> 
12008
(
307.1956603
307.2084036
307.2339317
307.2725323
307.3245617
307.3904888
307.4708794
307.5663714
307.6776441
307.8053832
307.9502433
308.112807
308.2935436
308.4927667
308.7105917
308.9468953
309.2012772
309.4730269
309.7610956
310.064074
310.3801776
310.7072381
311.0427029
311.38364
311.7267513
312.0683926
312.4046015
312.7311351
313.0435192
313.337111
313.6071798
313.8489971
314.0579454
314.2296624
314.3601864
314.446118
314.4847938
314.4746932
314.4153053
314.3049548
314.1459341
313.9408668
313.6934712
313.4084726
313.0914491
312.7486259
312.3866377
312.0122768
311.6322465
311.2529365
310.8802361
310.5193953
310.1749386
309.8506314
309.5494916
309.2738399
309.025379
308.8052929
308.6143554
308.4530401
308.3216247
308.2202851
308.1491753
308.1085509
308.0983689
308.1188748
308.1704979
308.2536751
308.3688441
308.5163824
308.6965247
308.9092619
309.1542248
309.4305588
309.736801
310.0707692
310.4294763
310.8090837
311.2049028
311.6114535
312.0225802
312.431621
312.8316191
313.21556
313.5766151
313.9083731
314.2050427
314.4616171
314.673994
314.8390518
314.9546834
315.0193631
315.0338194
314.9986391
314.914993
314.7849255
314.6110871
314.3966478
314.1452182
313.8607748
313.5475911
313.2101733
312.8531962
312.4814371
312.0997062
311.7127703
311.3252708
310.9416383
310.5660055
310.2021244
309.8532926
309.5222934
309.211355
308.9221296
308.6556966
308.4125853
308.1928176
307.9959652
307.8212175
307.6674553
307.5333256
307.4173134
307.3178086
307.233164
307.1617453
307.1019707
307.0523414
307.0114639
306.9780636
306.9509933
306.9292348
306.9118975
306.898213
306.8875284
306.8792979
306.8730737
306.868498
306.8652945
306.8632625
306.8622732
307.2049537
307.2180428
307.2442759
307.2839316
307.3373615
307.4050338
307.4875176
307.5854567
307.699538
307.8304547
307.9788676
308.1453648
308.3304193
308.5343454
308.7572563
308.9990225
309.2592343
309.5371675
309.831756
310.1415701
310.4648019
310.7992576
311.1423569
311.4911391
311.8422748
312.1920851
312.5365672
312.8714289
313.1921334
313.4939564
313.7720596
314.0215887
314.2377939
314.4161504
314.5525132
314.6432803
314.6855599
314.6777595
314.6200578
314.5088027
314.3472762
314.1380336
313.8848443
313.5925691
313.2669889
312.9145819
312.542267
312.1571317
311.7661663
311.376023
310.9928176
310.6219836
310.2681839
309.9352823
309.626361
309.3437787
309.089259
308.8639977
308.6687791
308.504091
308.3702344
308.2674187
308.1958434
308.1559648
308.1475573
308.1710277
308.2269208
308.3157446
308.4380022
308.5941228
308.7843711
309.0087367
309.2668089
309.5576433
309.879631
310.2303843
310.6066511
311.0042738
311.418203
311.8425728
312.2708386
312.6959697
313.1106821
313.5076932
313.8799758
314.220991
314.5248861
314.7866479
315.0022103
315.1685194
315.2835648
315.3455713
315.3561828
315.3156712
315.2252919
315.0872181
314.9042307
314.6796318
314.4171639
314.1209342
313.7953434
313.4450209
313.0747593
312.689449
312.294009
311.8933113
311.4921007
311.0949103
310.7059744
310.3291451
309.9678163
309.6248617
309.3025901
309.0027226
308.7263918
308.4741639
308.2460798
308.0417132
307.8602399
307.7005128
307.5611398
307.4405587
307.337106
307.2490781
307.1747832
307.1125825
307.0609228
307.018359
306.9835692
306.9553627
306.9326828
306.9146045
306.9003298
306.8891803
306.8805885
306.8740892
306.8693099
306.8659633
306.8638383
306.8627901
307.2236413
307.2374405
307.2651006
307.3068975
307.3631821
307.4344306
307.5212295
307.624247
307.7441984
307.8818073
308.0377649
308.2126864
308.4070668
308.6212357
308.8553113
309.1091571
309.3823415
309.6741022
309.9833172
310.3084828
310.6476998
310.9986681
311.3586876
311.7246674
312.0931403
312.4602834
312.8219444
313.1736745
313.5107702
313.8283276
314.1213122
314.3846516
314.6133557
314.8026523
314.9481313
315.0459136
315.0928364
315.087137
315.0299434
314.9150827
314.746976
314.5282059
314.2626859
313.9555412
313.6129211
313.2417519
312.849449
312.4436114
312.0317232
311.6208869
311.2176052
310.8276257
310.4558525
310.1063211
309.782231
309.4860177
309.2194571
308.9837874
308.7798372
308.6081504
308.4691018
308.3629969
308.2901541
308.2514148
308.2462096
308.2753625
308.3395885
308.4395463
308.5758705
308.7490887
308.9595154
309.207124
309.4914044
309.8112126
310.1646278
310.5488309
310.9600226
311.3933956
311.8431754
312.3027322
312.7647643
313.2215362
313.6651535
314.0878472
314.4822412
314.8415818
315.1599174
315.4322246
315.6544873
315.8237339
315.938025
315.9951439
315.998562
315.9475947
315.8437712
315.6894885
315.4877851
315.2422499
314.9569329
314.6362609
314.2849577
313.9079687
313.5103887
313.097389
312.6741456
312.2457632
311.8171968
311.3931707
310.9780946
310.5759826
310.1903782
309.8242909
309.4801496
309.1597761
308.8643813
308.5945842
308.3504515
308.1315558
307.9370455
307.7657232
307.6161269
307.4866088
307.3754093
307.2807216
307.2007477
307.1337433
307.0780525
307.0321327
306.994571
306.9640936
306.9395685
306.920004
306.9045439
306.8924593
306.8831404
306.8760866
306.8708973
306.8672635
306.8649589
306.8638201
307.2521302
307.2670329
307.2969146
307.3420526
307.4028055
307.4796738
307.5732834
307.684355
307.8136637
307.9619967
308.1301074
308.3186686
308.5282223
308.7591299
309.011521
309.2852437
309.5798197
309.8944041
310.2277537
310.578205
310.9436615
311.321593
311.7090425
312.102643
312.4986399
312.8929185
313.281036
313.6582573
314.0195966
314.359869
314.6737571
314.9558996
315.2010104
315.4040193
315.5602215
315.6654481
315.7162764
315.7108994
315.6512777
315.5287503
315.3488101
315.1142095
314.829095
314.4989792
314.1305302
313.7312933
313.309363
312.8730326
312.4304536
311.9893323
311.5566875
311.1386827
310.7405362
310.366509
310.0199571
309.7034256
309.418775
309.1673224
308.9499864
308.7674235
308.6201507
308.508651
308.4334639
308.3959525
308.3951123
308.4324659
308.5089202
308.6253637
308.7826203
308.981349
309.2219151
309.5042383
309.827625
310.1905961
310.5907275
311.0245239
311.4873444
311.9734026
312.4758513
312.9869551
313.498341
314.0013043
314.4871369
314.9474437
315.3744163
315.7610411
316.1012404
316.3899515
316.623167
316.7979527
316.9118754
316.963015
316.9565144
316.890406
316.7665662
316.5877082
316.3572778
316.0793501
315.7585214
315.3998026
315.008515
314.5901915
314.1504811
313.69506
313.229548
312.7594293
312.2899771
311.8261789
311.3726641
310.9336324
310.5127858
310.1132709
309.737633
309.3877896
309.065024
308.7700013
308.5028054
308.262996
308.0496786
307.8615853
307.6971591
307.5546371
307.4321292
307.3276886
307.2393719
307.1652888
307.1036401
307.0527463
307.0110655
306.977205
306.9499248
306.9281367
306.9108994
306.8974106
306.8869981
306.879109
306.8733007
306.8692311
306.8666498
306.8653755
307.2909657
307.3074151
307.3404126
307.3902437
307.4572873
307.5420895
307.645346
307.7678655
307.9105232
308.0742107
308.2597835
308.4680062
308.6994945
308.9546559
309.2336292
309.5362262
309.8618773
310.2095855
310.5778913
310.9648507
311.368028
311.7845025
312.2108894
312.6433694
313.0777273
313.5093933
313.9334858
314.3448545
314.7381248
315.1077467
315.4480555
315.7533539
316.0180252
316.2366823
316.404318
316.5164733
316.5694758
316.5618917
316.495973
316.3607703
316.1629367
315.9053997
315.5926429
315.2306906
314.8268816
314.3895578
313.9276854
313.4504482
312.966849
312.48536
312.0136471
311.5583878
311.1251826
310.7185586
310.3420509
309.9983314
309.6893645
309.4165749
309.1810134
308.9835072
308.8247897
308.7056051
308.6269223
308.590485
308.5951673
308.6432052
308.7358051
308.874149
309.0592926
309.2920371
309.5727717
309.9012901
310.2765933
310.6966914
311.1584291
311.6573587
312.1876875
312.7423238
313.3130302
313.8906835
314.465616
315.0280013
315.5682371
316.0772781
316.5468871
316.9697901
317.3397464
317.65156
317.9010737
318.0851771
318.2000792
318.2455322
318.226974
318.1414214
317.9909774
317.7787845
317.5088996
317.1861601
316.8160371
316.4044836
315.9577841
315.4824101
314.9848841
314.4716595
313.949017
313.4229783
312.8992352
312.3830897
311.8794006
311.3925336
310.9263136
310.4839796
310.0681489
309.6807932
309.323233
308.9961502
308.6996227
308.4331768
308.1958573
307.9863068
307.8028529
307.6435949
307.506487
307.3894138
307.2902561
307.2069452
307.137506
307.0800886
307.0329902
306.9946679
306.9637447
306.9390093
306.9194112
306.9040532
306.892182
306.8831768
306.8765398
306.8718855
306.8689314
306.8674751
307.3408753
307.3593747
307.3965038
307.4525641
307.5279713
307.6233438
307.7394841
307.8773331
308.0379135
308.22227
308.4314046
308.6662102
308.9274
309.2154342
309.5304452
309.8721661
310.2398646
310.6322896
311.047633
311.4835116
311.9369699
312.4045035
312.8821008
313.365297
313.8492356
314.3287318
314.7983311
315.2523634
315.6849893
316.090245
316.462092
316.7944843
317.0814669
317.3173291
317.4967542
317.6149759
317.6680423
317.6555819
317.5791828
317.4259492
317.2037588
316.9156721
316.5665874
316.1631494
315.7135225
315.2270418
314.7137743
314.1840365
313.6479195
313.1148724
312.5933802
312.0907592
311.613072
311.1651526
310.7507249
310.3725825
310.03279
309.7328876
309.4740853
309.2574306
309.0839462
308.9547336
308.8713903
308.8358564
308.8473434
308.9087164
309.0216032
309.187537
309.4078272
309.6833983
310.0145963
310.40097
310.8410392
311.3320737
311.8699076
312.4488276
313.0615634
313.69941
314.3524842
315.0101012
315.6612254
316.2949352
316.9008331
317.4693492
317.9919117
318.4609935
318.8700729
319.213565
319.4867844
319.6859891
319.8049614
319.8461895
319.8143093
319.7051485
319.5210517
319.2657789
318.944313
318.5626592
318.1276239
317.6465859
317.1272703
316.5775313
316.0051553
315.4176934
314.8223295
314.2257854
313.6342589
313.0533876
312.4882284
311.9432448
311.422294
310.9286115
310.4647941
310.0327866
309.6338788
309.2687169
308.9373324
308.6391895
308.3732495
308.1380486
307.931783
307.752398
307.5976743
307.4653083
307.3529827
307.2584264
307.1794626
307.1140445
307.0602815
307.0164546
306.9810246
306.9526332
306.9300994
306.9124116
306.8987182
306.8883163
306.8806401
306.8752514
306.8718283
306.8701429
307.4027725
307.4238964
307.4663166
307.5303609
307.6165006
307.7254592
307.8581892
308.015815
308.1995627
308.4106829
308.6503713
308.9196834
309.2194457
309.550162
309.9119199
310.3043011
310.7263015
311.1762708
311.6518748
312.1500875
312.6672138
313.1989413
313.7404147
314.2863259
314.8310085
315.3685281
315.8927615
316.3974603
316.8762976
317.3229028
317.7308913
318.0939052
318.4056798
318.6601936
318.8518066
318.9753941
319.0266212
319.0070553
318.9163959
318.7402196
318.4874476
318.1612921
317.7670531
317.3120552
316.8054218
316.2576892
315.6802959
315.0850023
314.4833092
313.8859434
313.3024631
312.7410143
312.2082441
311.7093546
311.2482694
310.8278792
310.4503156
310.1172125
309.8299392
309.5897945
309.398153
309.2565668
309.1674304
309.132814
309.1525754
309.2302326
309.3679167
309.5675543
309.8307035
310.158353
310.5506877
311.0068307
311.5245803
312.1001702
312.7280919
313.4010232
314.1099023
314.8441702
315.5921766
316.3417022
317.0805215
317.7969083
318.4799999
319.1199712
319.7080264
320.2362639
320.6975017
321.0851514
321.3932197
321.6165014
321.7449906
321.7846703
321.7386496
321.601089
321.3747584
321.0644246
320.676524
320.2188375
319.7001484
319.1298993
318.5178592
317.8738097
317.2072656
316.5272465
315.8421084
315.1594395
314.486014
313.8277921
313.1899502
312.5769243
311.9924523
311.4396057
310.9208083
310.4378447
309.9918648
309.5833942
309.2123564
308.8781106
308.5795068
308.3149558
308.0825099
307.8799502
307.7048738
307.5547771
307.4271308
307.3194452
307.2293232
307.1545013
307.0928798
307.0425422
307.0017658
306.9690252
306.9429896
306.9225158
306.9066385
306.8945587
306.8856321
306.8793581
306.8753689
306.8734069
307.4777608
307.5021669
307.5512065
307.6252451
307.724832
307.8508325
308.0043987
308.1868967
308.3998151
308.6446669
308.9228853
309.235714
309.5840914
309.9685309
310.3890016
310.8448177
311.3345446
311.8559334
312.4058926
312.9805011
313.5750663
314.1842197
314.8020415
315.4221983
316.0380797
316.6429196
317.2298934
317.7921864
318.3230343
318.8157387
319.2636657
319.6602451
319.9989863
320.2735995
320.47811
320.6069504
320.655203
320.6272817
320.5198808
320.3170708
320.0287148
319.6580206
319.2105712
318.6943315
318.1194483
317.4978404
316.8426095
316.1673378
315.4853602
314.8091061
314.1495874
313.5160834
312.9160348
312.3551268
311.8375203
311.3661786
310.9432411
310.5703776
310.249083
309.9809094
309.7676264
309.6113171
309.515338
309.4818521
309.5116249
309.6088798
309.7763142
310.0162644
310.3304935
310.7199434
311.1844558
311.7224757
312.3307644
313.004161
313.7354443
314.5153514
315.332796
316.1752991
317.0295933
317.8823049
318.720583
319.5325352
320.3073846
321.0353424
321.7072842
322.3143721
322.8477834
323.2986437
323.6582439
323.9186009
324.0641907
324.1053788
324.043412
323.8702015
323.5895182
323.2078979
322.7340789
322.1784803
321.5526927
320.8689957
320.1399033
319.3777412
318.5942741
317.800404
317.0059583
316.2195727
315.4486641
314.6994794
313.9771936
313.2860335
312.6293994
312.0099679
311.4297662
310.890217
310.392163
309.9358784
309.5210831
309.1469658
308.8122236
308.5151178
308.2535441
308.0251126
307.8272329
307.657197
307.5122578
307.3896983
307.28689
307.2013389
307.1307211
307.0729056
307.0259695
306.9882031
306.9581095
306.9343985
306.9159773
306.9019387
306.8915493
306.8842379
306.8795845
306.8772977
307.5671306
307.5955719
307.6527524
307.739088
307.8552302
308.0022258
308.1814804
308.3946624
308.643584
308.9300724
309.2558321
309.6223013
310.0305011
310.4808811
310.9731701
311.5062417
312.078009
312.685363
313.3241645
313.9892979
314.6747839
315.373942
316.0795829
316.784209
317.4801971
318.1599486
318.8159943
319.4410573
320.0280722
320.5701711
321.0606408
321.4928669
321.8602833
322.1564207
322.374978
322.5098517
322.5552495
322.5191038
322.3945817
322.1636391
321.8370024
321.4175558
320.9108768
320.3253639
319.6721095
318.964499
318.217553
317.4470848
316.6687828
315.8973446
315.1457819
314.4249753
313.7435104
313.1077773
312.5222756
311.9900501
311.5131864
311.0933013
310.7319432
310.430883
310.1923
310.0188689
309.9150701
309.8831127
309.924918
310.0454635
310.2480528
310.5354112
310.9094118
311.3707733
311.9187354
312.5507326
313.2621034
314.0458905
314.8928027
315.7914054
316.728578
317.6902161
318.662074
319.6305621
320.5832893
321.5091833
322.3981483
323.2403861
324.0256244
324.742532
325.3785634
325.9202526
326.3539856
326.6672898
326.8370279
326.880687
326.7965932
326.574683
326.2210028
325.7451457
325.1593542
324.4777453
323.715626
322.8888916
322.0134766
321.1048428
320.1775177
319.2447147
318.318064
317.4074689
316.5210901
315.665442
314.8455722
314.0652858
313.3273751
312.6338238
311.9859636
311.3845783
310.8299617
310.3219427
309.8598906
309.4427206
309.0689102
308.7365324
308.4433065
308.1866647
307.9638278
307.7718849
307.6078719
307.468843
307.3519341
307.2544137
307.1737237
307.1075074
307.0536283
307.0101791
306.9754832
306.9480905
306.9267685
306.910491
306.8984261
306.8899243
306.8845077
306.8818473
307.672344
307.7056794
307.7727366
307.8739948
308.0102311
308.182715
308.3931588
308.6435925
308.9362066
309.2731812
309.6565052
310.0877867
310.5680571
311.097576
311.6756468
312.3004608
312.9689871
313.6769272
314.4187488
315.1878027
315.9765191
316.7766624
317.5796147
318.3766495
319.1591624
319.9188339
320.6477238
321.3383026
321.9834326
322.5763092
323.11037
323.5791797
323.9763071
324.2952479
324.5294285
324.6721472
324.7164016
324.6737216
324.5343793
324.276809
323.9125362
323.4436322
322.8751736
322.2155564
321.476513
320.6727836
319.8214316
318.9408644
318.0496867
317.1655569
316.3042163
315.4788246
314.699668
313.9742345
313.3075887
312.7029418
312.1623046
311.6871457
311.2789599
310.939664
310.6718242
310.4787394
310.3661622
310.3362749
310.3923914
310.5402688
310.7838216
311.126092
311.5689016
312.1124899
312.7551514
313.4928995
314.3192144
315.2249528
316.1985125
317.2263237
318.2936788
319.3857927
320.4888597
321.5907806
322.6812611
323.7511513
324.7911597
325.7903445
326.7348967
327.6076396
328.3885708
329.0561105
329.5889516
329.96834
330.1620299
330.2022562
330.0795106
329.7853451
329.3301889
328.7284547
327.9972506
327.1553721
326.2225265
325.2187228
324.1637248
323.0765128
321.9747624
320.8743834
319.7891683
318.7305866
317.7077432
316.7274984
315.7947189
314.9126134
314.0830957
313.3071236
312.5849754
311.9164457
311.3009614
310.737634
310.2252677
309.7623466
309.3470213
308.9771096
308.6501184
308.3632861
308.113642
307.8980755
307.7134108
307.5564779
307.4241788
307.3135436
307.2217759
307.1462865
307.084717
307.0349522
306.9951256
306.9636161
306.9390415
306.9202473
306.9062948
306.8964495
306.8901702
306.8870871
307.7950026
307.8342039
307.9131015
308.0322481
308.1925676
308.3955886
308.6433783
308.9383775
309.2831939
309.680376
310.1321749
310.6402981
311.2056585
311.8281325
312.5063404
313.2374745
314.017197
314.8396316
315.697463
316.5821489
317.4842308
318.3937138
319.3004647
320.1945721
321.0666143
321.9078089
322.7100558
323.4659016
324.168454
324.8112636
325.3881824
325.8931971
326.3202405
326.6629658
326.9146528
327.0680157
327.1145569
327.0684956
326.9194663
326.6402438
326.2430279
325.7284571
325.100421
324.3666197
323.5388192
322.6326998
321.6672325
320.6636086
319.6438552
318.6293447
317.6394414
316.6904925
315.7952971
314.9630779
314.1998912
313.5093384
312.8934248
312.3534223
311.8906517
311.5070657
311.2055549
310.990036
310.8676545
310.8404567
310.9133615
311.0928901
311.38352
311.7884706
312.3092679
312.9453262
313.6935646
314.5481059
315.50014
316.5380651
317.6480218
318.8148799
320.0236019
321.2607013
322.5153245
323.7794308
325.0467451
326.3105716
327.5610189
328.7825342
329.9526196
331.0422038
332.0181482
332.8464311
333.4959053
333.9380551
334.1384022
334.1550441
333.9590606
333.5540652
332.9572921
332.1896928
331.2741901
330.234601
329.0950024
327.8793314
326.6110094
325.3124816
324.0046785
322.7064693
321.4341842
320.2012776
319.0181845
317.8923962
316.8287378
315.8297988
314.8964407
314.0283033
313.2242444
312.4826729
311.8017638
311.1795648
310.6140235
310.1029648
309.644048
309.2347268
308.8722298
308.553568
308.2755663
308.034915
307.8282321
307.6521314
307.503288
307.3784973
307.2747259
307.1891503
307.1191855
307.0625024
307.0170366
306.9809885
306.9528176
306.9312333
306.9151832
306.9038421
306.8966008
306.8930458
307.9367959
307.9829491
308.0758797
308.2162198
308.4050533
308.6441946
308.9361
309.283651
309.6898836
310.1576922
310.6895199
311.2870428
311.9508579
312.6801906
313.4726463
314.3240336
315.2282901
316.1775344
317.1622609
318.1716764
319.1941605
320.2178053
321.2309609
322.222699
323.1831051
324.103365
324.9756929
325.7931705
326.5495547
327.2390849
327.8562932
328.3958049
328.8521064
329.2192051
329.4904224
329.658016
329.7118925
329.6667164
329.5155633
329.2232161
328.8019233
328.25036
327.5704575
326.7683049
325.8547686
324.8456661
323.761348
322.625649
321.4643095
320.3031043
319.1659971
318.0736362
317.0424249
316.0842605
315.2068976
314.4147787
313.7101231
313.0940616
312.5676663
312.1327933
311.7925551
311.5514355
311.4180466
311.3941492
311.4864292
311.702098
312.0460767
312.5215359
313.1293657
313.8677129
314.7316179
315.7128278
316.799909
317.9788198
319.2340726
320.5504817
321.915218
323.3195464
324.7593804
326.2339243
327.7422894
329.2788078
330.8283661
332.3633264
333.8432908
335.2178395
336.4335519
337.4403582
338.1984334
338.6608804
338.8289643
338.7730961
338.4468589
337.8766857
337.0889547
336.111832
334.9736798
333.7023422
332.3250223
330.8683789
329.3585075
327.8206611
326.2787373
324.7546329
323.2675798
321.833578
320.4650321
319.1706638
317.9557217
316.8224461
315.7707035
314.7986791
313.9035238
313.0818816
312.3302587
311.6452342
311.0235371
310.4620316
309.9576516
309.5073203
309.1078797
308.7560497
308.4484199
308.1814703
307.9516155
307.7552603
307.5888617
307.4489887
307.3323759
307.2359678
307.1569526
307.0927844
307.0411967
307.0002054
306.9681059
306.9434654
306.9251121
306.9121249
306.9038233
306.8997475
308.0994274
308.1537269
308.263098
308.4282497
308.6504263
308.9317372
309.2750381
309.6836503
310.1610084
310.7102785
311.3339635
312.0335085
312.8089235
313.6584469
314.5782793
315.5624232
316.6026589
317.6886808
318.8084061
319.9484567
321.0947936
322.2334599
323.3513289
324.4367211
325.4797176
326.4721074
327.4070917
328.2789036
329.0824538
329.8130416
330.4661287
331.0371358
331.5212095
331.9128436
332.2055847
332.3914698
332.459032
332.4195921
332.275148
331.982038
331.5489152
330.9734377
330.2548048
329.3964365
328.4070834
327.3014868
326.1003621
324.8295586
323.5184169
322.1975495
320.896429
319.641229
318.4532966
317.34847
316.337254
315.4256943
314.6166884
313.9114438
313.3108246
312.8164844
312.4316247
312.1611971
312.0152917
311.995191
312.1094262
312.3657491
312.7693136
313.3229118
314.0263508
314.8759773
315.8644075
316.9805893
318.2103819
319.5378708
320.9475348
322.4270848
323.9702759
325.5784303
327.2592287
329.0220174
330.8703853
332.7941372
334.7629833
336.7240067
338.6046297
340.3199478
341.7896102
342.9470393
343.7474309
344.1398939
344.2167921
343.9923103
343.460387
342.6620661
341.6338736
340.4096085
339.0205431
337.4958009
335.8631223
334.1496629
332.3824353
330.5882608
328.7933034
327.0223126
325.2977172
323.6387253
322.0606002
320.5742527
319.1862339
317.8991205
316.7122106
315.6223891
314.6250137
313.7146953
312.8858925
312.133292
311.4519914
310.837528
310.2858083
309.7929923
309.3553717
308.9692706
308.6309828
308.3367498
308.0827737
307.8652535
307.6804365
307.5246743
307.394478
307.2865658
307.1979019
307.1257243
307.0675628
307.0212456
306.9849004
306.9569476
306.9360917
306.9213122
306.9118541
306.9072097
308.2845205
308.3482533
308.4766535
308.670492
308.9311548
309.261029
309.6633467
310.1418236
310.7002099
311.3418068
312.0689755
312.8826609
313.7819555
314.7637338
315.822395
316.9497451
318.135045
319.3652363
320.6253516
321.8991166
323.1697547
324.420988
325.6381108
326.8089224
327.9241241
328.9770023
329.9627079
330.8774837
331.7180568
332.4812322
333.1636498
333.7616228
334.2709664
334.6866744
335.0026081
335.2108481
335.2992113
335.27051
335.1415301
334.8634455
334.4326254
333.8494819
333.1097051
332.21297
331.1645522
329.9765823
328.6686379
327.2673665
325.8050123
324.3169883
322.8389034
321.4036192
320.0389078
318.7661043
317.5998848
316.5490411
315.6179489
314.8083581
314.1211415
313.5577564
313.1213547
312.8172137
312.6568338
312.6407879
312.7794069
313.0807432
313.5498602
314.1887247
314.9955063
315.964146
317.0843033
318.3418787
319.7203969
321.2035249
322.7787618
324.4417271
326.1995269
328.0708359
330.0805218
332.2487322
334.5776028
337.0401692
339.5740096
342.0808394
344.4358836
346.5026787
348.1740273
349.3782902
350.0529638
350.2675765
350.1352731
349.6300476
348.8107654
347.72829
346.4244371
344.9335907
343.2852261
341.5056677
339.6198067
337.6525608
335.6297095
333.5780501
331.5249859
329.4976725
327.5218562
325.6205803
323.8129802
322.1133926
320.5309463
319.0696985
317.7292651
316.5057944
315.3930882
314.3836806
313.4697326
312.6436652
311.8985236
311.2281075
310.6269353
310.0901097
309.6131484
309.1918231
308.8220332
308.4997264
308.2208666
307.9814404
307.7774886
307.6051541
307.4607331
307.3407258
307.241878
307.1612152
307.0960642
307.0440655
307.0031766
306.9716687
306.9481199
306.9314075
306.9206999
306.9154404
308.4935036
308.5680228
308.7181668
308.944736
309.2492137
309.6342132
310.1032746
310.6604092
311.3095366
312.0538888
312.8954191
313.8342536
314.8682178
315.9924791
317.1993382
318.4781881
319.8156404
321.1957977
322.6006641
324.010733
325.4058667
326.7666305
328.0759891
329.3210549
330.493844
331.5904749
332.6095721
333.5507238
334.4134629
335.1967204
335.898626
336.5164603
337.046633
337.4845151
337.8242059
338.0579759
338.1740096
338.1616766
338.0568989
337.8078479
337.3946215
336.8219247
336.0814704
335.1684176
334.083352
332.8341676
331.4374498
329.9188581
328.3121551
326.6568454
324.9947728
323.3663498
321.8072059
320.3459017
319.0030333
317.7916857
316.7189211
315.7878483
314.9998056
314.3562447
313.860197
313.5170916
313.3396834
313.3275749
313.4926867
313.8430291
314.3831241
315.1135431
316.030163
317.123876
318.3809393
319.7842777
321.3161575
322.9625619
324.7190777
326.596936
328.6261839
330.8517979
333.3199006
336.0565752
339.0480936
342.230246
345.4852963
348.6422597
351.495878
353.8329212
355.5423253
356.5382566
356.8877845
356.8062373
356.2795342
355.3980362
354.2327039
352.8373525
351.2505967
349.5003433
347.6089201
345.5958384
343.4800705
341.2818543
339.0237253
336.7308137
334.4305241
332.1516613
329.9230822
327.7720308
325.7224064
323.7932658
321.9978276
320.3431519
318.8305158
317.4563613
316.2135898
315.0929476
314.0842795
313.177503
312.363245
311.6331557
310.9799664
310.3973757
309.8798489
309.4223963
309.0203785
308.6693593
308.3650152
308.1030979
307.8794372
307.6899708
307.5307887
307.3981811
307.2886834
307.1991137
307.1265996
307.0685953
307.0228881
306.9875993
306.9611791
306.9424009
306.9303557
306.9244368
308.727479
308.8141668
308.9888187
309.2522094
309.6058449
310.0524713
310.595816
311.2400252
311.9889773
312.8455701
313.811044
314.8843897
316.0618906
317.3368395
318.6994455
320.1369078
321.6335862
323.1711715
324.7288031
326.2832498
327.8095264
329.2826376
330.6805976
331.9884289
333.2001752
334.3171573
335.344316
336.2869846
337.1491915
337.9329788
338.6384326
339.2638956
339.8062373
340.2609519
340.6220953
340.8819329
341.0293233
341.0444762
340.9659529
340.7557871
340.3759207
339.8319327
339.111957
338.2065077
337.1106818
335.8266909
334.3661667
332.7515797
331.016162
329.202015
327.3565715
325.5280924
323.7611932
322.0933581
320.5530533
319.1595657
317.9242852
316.8529192
315.9480662
315.2116011
314.6465247
314.2582429
314.0605195
314.0517127
314.2449207
314.6476605
315.2633254
316.0903996
317.1217318
318.3445295
319.7413752
321.2927554
322.9817033
324.8009124
326.7616595
328.9017393
331.2867508
333.9976243
337.1014445
340.6150973
344.4828337
348.5768939
352.7025608
356.5812965
359.8785291
362.2463873
363.6091352
364.0721675
363.9697686
363.3154973
362.288263
360.9792532
359.4542418
357.7561304
355.9106685
353.9334024
351.8358897
349.6284448
347.3223466
344.9315943
342.473948
339.9713597
337.4498424
334.9387261
332.4692814
330.0728115
327.7784516
325.6110228
323.589312
321.7250821
320.0229579
318.4811424
317.0927463
315.8474261
314.7330171
313.7369214
312.8471145
312.052741
311.3443483
310.7138521
310.1543397
309.6598036
309.2248762
308.8446083
308.5143098
308.2294555
307.9856459
307.7786104
307.6042372
307.4586144
307.338075
307.2392368
307.1590334
307.0947359
307.0439639
307.0046891
306.9752337
306.9542671
306.940802
306.9341826
308.9870823
309.0873047
309.2891787
309.5933766
310.0013185
310.5157426
311.1403872
311.8793122
312.7360885
313.7129841
314.8102383
316.0254969
317.3534684
318.7858324
320.3113679
321.9161808
323.5838124
325.2949624
327.0266537
328.7510692
330.4349549
332.0416703
333.5370478
334.8994973
336.1259561
337.2281655
338.2234459
339.1275697
339.9521429
340.703914
341.3855818
341.9966112
342.5340909
342.9932154
343.3675012
343.6486972
343.8255369
343.8774009
343.8237117
343.6574143
343.326052
342.8258251
342.145209
341.2702649
340.1901449
338.9002722
337.4055229
335.722831
333.8823607
331.9265621
329.9069473
327.879131
325.8972628
324.0091529
322.2530799
320.6566721
319.2376791
318.0061
316.9670116
316.123437
315.4786653
315.0379736
314.8158043
314.8090086
315.0312194
315.4889026
316.1836001
317.1109085
318.2598621
319.6134011
321.1504042
322.8500277
324.6992017
326.7036261
328.9007578
331.3695417
334.2267948
337.5984428
341.5638256
346.0987305
351.0647922
356.2486957
361.3851293
366.032573
369.6219419
371.4045778
371.9467486
371.6786231
370.7417673
369.3997952
367.8422675
366.1195939
364.2685644
362.3096651
360.2504261
358.0922866
355.8355139
353.4810188
351.03208
348.4958119
345.8841555
343.2145169
340.5099738
337.7988558
335.113564
332.4886368
329.958247
327.5534756
325.2998132
323.2153291
321.3098213
319.5850378
318.0358252
316.6518828
315.4197335
314.3245599
313.351666
312.4874588
311.7199578
311.0389204
310.4357041
309.9029862
309.4344408
309.0244395
308.6678147
308.3596969
308.0954228
307.8705001
307.6806135
307.5216545
307.389761
307.2813581
307.1931922
307.1223562
307.0663052
307.0228639
306.9902276
306.9669624
306.9520035
306.9446459
309.2723439
309.3873931
309.6190385
309.9677491
310.4347158
311.0224826
311.7345689
312.574679
313.5457836
314.6492511
315.8841557
317.2468698
318.7310094
320.3277287
322.0262346
323.8142078
325.6776327
327.5994272
329.5563953
331.5147809
333.4260478
335.2281874
336.857129
338.2728832
339.4769601
340.5047767
341.3996363
342.1966351
342.9203988
343.5847997
344.1957042
344.7533588
345.2545186
345.693282
346.0618294
346.3506196
346.5477851
346.634071
346.6033399
346.4794268
346.2075352
345.7600498
345.1331955
344.308101
343.2678006
342.0003361
340.5024733
338.7834504
336.8676447
334.7950476
332.6189135
330.4008024
328.204136
326.0878781
324.1017855
322.2839881
320.6608932
319.2489011
318.0572391
317.0911777
316.3548809
315.8535458
315.6018949
315.5950492
315.846292
316.3603847
317.1361733
318.1654834