/*--------------------------------*- C++ -*----------------------------------*\
| =========                 |                                                 |
| \\      /  F ield         | OpenFOAM: The Open Source CFD Toolbox           |
|  \\    /   O peration     | Version:  2412                                  |
|   \\  /    A nd           | Website:  www.openfoam.com                      |
|    \\/     M anipulation  |                                                 |
\*---------------------------------------------------------------------------*/
FoamFile
{
    version     2.0;
    format      ascii;
    arch        "LSB;label=32;scalar=64";
    class       volVectorField;
    location    "0.1";
    object      U;
}
// * * * * * * * * * * * * * * * * * * * * * * * * * * * * * * * * * * * * * //

dimensions      [0 1 -1 0 0 0 0];

internalField   nonuniform List<vector> 
12008
(
(-2.199239845e-05 1.049344799e-05 0)
(-0.0001021410267 1.80306277e-05 0)
(-0.0001983313966 2.005420069e-05 0)
(-0.0002894991271 1.892886456e-05 0)
(-0.0003668904209 1.699603534e-05 0)
(-0.0004289799498 1.491097674e-05 0)
(-0.0004752078122 1.276577387e-05 0)
(-0.0005048633332 1.044526863e-05 0)
(-0.00051674459 7.818937551e-06 0)
(-0.0005092263317 4.787436966e-06 0)
(-0.0004804263968 1.283327151e-06 0)
(-0.0004283685882 -2.728778496e-06 0)
(-0.0003511338208 -7.254613925e-06 0)
(-0.0002469730827 -1.227488666e-05 0)
(-0.0001144492198 -1.77365647e-05 0)
(4.741509757e-05 -2.354692916e-05 0)
(0.0002389770879 -2.957024337e-05 0)
(0.0004598097495 -3.562767468e-05 0)
(0.0007085517139 -4.149974629e-05 0)
(0.0009827901853 -4.693608821e-05 0)
(0.001278995812 -5.167152395e-05 0)
(0.001592528925 -5.544494636e-05 0)
(0.001917723914 -5.802025131e-05 0)
(0.002248056426 -5.920908789e-05 0)
(0.002576385959 -5.889106573e-05 0)
(0.002895251993 -5.70242588e-05 0)
(0.003197195593 -5.364844061e-05 0)
(0.003475080704 -4.888214545e-05 0)
(0.003722387932 -4.291375463e-05 0)
(0.003933407458 -3.598060911e-05 0)
(0.004103429987 -2.820802989e-05 0)
(0.004228508342 -1.960384941e-05 0)
(0.004305480443 -1.065397093e-05 0)
(0.004333442806 -1.980043237e-06 0)
(0.004313489691 6.142110548e-06 0)
(0.004248007613 1.350859012e-05 0)
(0.004140502214 1.996865467e-05 0)
(0.00399532205 2.543337829e-05 0)
(0.003817512787 2.98437986e-05 0)
(0.003612471605 3.320920395e-05 0)
(0.003385725652 3.554804511e-05 0)
(0.003142848987 3.69359344e-05 0)
(0.002889207334 3.74628993e-05 0)
(0.002629852106 3.72302634e-05 0)
(0.002369429434 3.634096974e-05 0)
(0.002112134705 3.489199736e-05 0)
(0.001861705136 3.296930052e-05 0)
(0.001621443639 3.064254523e-05 0)
(0.001394244782 2.796806387e-05 0)
(0.001182627579 2.498856273e-05 0)
(0.0009887661132 2.172655833e-05 0)
(0.0008142796092 1.829357025e-05 0)
(0.0006601239521 1.486639341e-05 0)
(0.0005268143975 1.143129688e-05 0)
(0.0004148316403 7.877303577e-06 0)
(0.0003246459479 4.227962928e-06 0)
(0.0002564179343 5.394963395e-07 0)
(0.0002099468656 -3.118823143e-06 0)
(0.0001846475384 -6.669631783e-06 0)
(0.0001795391102 -1.002992163e-05 0)
(0.000193254977 -1.311360248e-05 0)
(0.0002240714283 -1.58365581e-05 0)
(0.0002699557859 -1.812035177e-05 0)
(0.0003286090539 -1.989193734e-05 0)
(0.0003975319388 -2.108268267e-05 0)
(0.0004741152082 -2.162247233e-05 0)
(0.0005556693759 -2.145965587e-05 0)
(0.0006394636042 -2.055610559e-05 0)
(0.0007227804866 -1.887536125e-05 0)
(0.0008029158962 -1.638039869e-05 0)
(0.0008771775906 -1.303431015e-05 0)
(0.0009428875173 -8.816123218e-06 0)
(0.000997391288 -3.726618949e-06 0)
(0.001038090491 2.208169308e-06 0)
(0.001062489242 8.929200237e-06 0)
(0.001068274667 1.633872649e-05 0)
(0.001053425277 2.429226988e-05 0)
(0.001016356841 3.259497897e-05 0)
(0.0009560858148 4.100394001e-05 0)
(0.0008723994233 4.92369083e-05 0)
(0.0007660163572 5.698639646e-05 0)
(0.0006387198902 6.393481127e-05 0)
(0.0004934415726 6.977224029e-05 0)
(0.0003342718672 7.422092329e-05 0)
(0.000166380295 7.705739053e-05 0)
(-4.172893588e-06 7.813428442e-05 0)
(-0.0001707425412 7.739803816e-05 0)
(-0.0003265108352 7.490078635e-05 0)
(-0.0004649480941 7.079561192e-05 0)
(-0.0005802394162 6.531731656e-05 0)
(-0.0006676499327 5.876490858e-05 0)
(-0.0007239322246 5.151627385e-05 0)
(-0.0007476055577 4.401506686e-05 0)
(-0.0007390862932 3.668546466e-05 0)
(-0.0007005221774 2.986469231e-05 0)
(-0.0006354657393 2.380566311e-05 0)
(-0.0005485518405 1.868309695e-05 0)
(-0.0004452919526 1.458937019e-05 0)
(-0.0003317636396 1.155263095e-05 0)
(-0.0002142405415 9.543515103e-06 0)
(-9.882400366e-05 8.473004905e-06 0)
(8.929307774e-06 8.196396769e-06 0)
(0.0001043294924 8.526805682e-06 0)
(0.0001837908622 9.256545417e-06 0)
(0.0002449600307 1.017779051e-05 0)
(0.0002867348834 1.109568525e-05 0)
(0.0003091572299 1.184360777e-05 0)
(0.0003132467663 1.230355715e-05 0)
(0.0003007989074 1.240401222e-05 0)
(0.0002741583688 1.210492727e-05 0)
(0.000236006564 1.140028941e-05 0)
(0.0001891549898 1.031563343e-05 0)
(0.0001363762661 8.896881549e-06 0)
(8.027801433e-05 7.202599944e-06 0)
(2.320900841e-05 5.298670637e-06 0)
(-3.280510474e-05 3.255848853e-06 0)
(-8.60925907e-05 1.139657358e-06 0)
(-0.000135336563 -9.918849812e-07 0)
(-0.0001795592079 -3.088106499e-06 0)
(-0.0002180962272 -5.105961863e-06 0)
(-0.000250558497 -7.01350213e-06 0)
(-0.000276787813 -8.787345391e-06 0)
(-0.000296812011 -1.041193544e-05 0)
(-0.0003108003905 -1.188081014e-05 0)
(-0.0003190200893 -1.319592842e-05 0)
(-0.0003217982678 -1.436223411e-05 0)
(-0.0003194940866 -1.538879435e-05 0)
(-0.0003124665882 -1.628860582e-05 0)
(-0.0003010540426 -1.707940175e-05 0)
(-0.0002855611508 -1.778026162e-05 0)
(-0.0002662474503 -1.841112821e-05 0)
(-0.0002433138429 -1.899395074e-05 0)
(-0.0002168835992 -1.954965549e-05 0)
(-0.0001869915988 -2.009419344e-05 0)
(-0.0001536164241 -2.064002898e-05 0)
(-0.0001168689093 -2.117783499e-05 0)
(-7.754978773e-05 -2.154698018e-05 0)
(-3.814351085e-05 -2.120327506e-05 0)
(-5.336722939e-06 -1.863658323e-05 0)
(6.297371464e-06 -9.466373441e-06 0)
(-3.522924656e-05 7.608100846e-05 0)
(-0.0001761713443 0.0001336393745 0)
(-0.0003330224405 0.000137765523 0)
(-0.0004713046902 0.0001181728706 0)
(-0.000575833944 9.097134797e-05 0)
(-0.0006434484092 6.183577268e-05 0)
(-0.0006727577508 3.17157394e-05 0)
(-0.0006621565841 -2.154765936e-08 0)
(-0.0006091893418 -3.422817014e-05 0)
(-0.0005106668331 -7.151182238e-05 0)
(-0.0003630115265 -0.0001121589964 0)
(-0.0001625635886 -0.0001561909165 0)
(9.416567285e-05 -0.0002033921481 0)
(0.00041018616 -0.0002532993963 0)
(0.0007877538951 -0.0003051872121 0)
(0.001228066879 -0.000358044944 0)
(0.00173094381 -0.0004105656263 0)
(0.002294505788 -0.0004611590176 0)
(0.002914890143 -0.00050799402 0)
(0.003586034872 -0.0005490779015 0)
(0.004299569382 -0.0005823691319 0)
(0.005044842935 -0.0006059137635 0)
(0.005809109263 -0.0006179935512 0)
(0.00657787001 -0.000617266698 0)
(0.007335359827 -0.0006028855631 0)
(0.008065131742 -0.0005745693398 0)
(0.008750696666 -0.0005326255513 0)
(0.009376156791 -0.0004779149086 0)
(0.009926773873 -0.000411764907 0)
(0.01038952464 -0.0003358489229 0)
(0.01075310908 -0.0002519384239 0)
(0.0110088184 -0.0001615545285 0)
(0.0111511962 -6.749944403e-05 0)
(0.01117600268 2.641726187e-05 0)
(0.01108437989 0.0001171481328 0)
(0.01088053149 0.0002022955192 0)
(0.01057145861 0.0002799185884 0)
(0.01016644335 0.0003485365295 0)
(0.009676709002 0.0004070763364 0)
(0.009114702987 0.0004549635482 0)
(0.008493644774 0.0004919233005 0)
(0.007827250306 0.0005180948227 0)
(0.007129119081 0.0005339037261 0)
(0.006412423752 0.0005399993965 0)
(0.005689611069 0.0005371776428 0)
(0.004972193674 0.0005263030368 0)
(0.004270628898 0.000508245403 0)
(0.003594274694 0.000483840192 0)
(0.002951373586 0.0004538904266 0)
(0.002349059758 0.0004192038362 0)
(0.001793432445 0.0003806452972 0)
(0.001289214939 0.0003393719177 0)
(0.0008394813258 0.0002966281191 0)
(0.0004463207436 0.00025294288 0)
(0.0001104835549 0.0002083565435 0)
(-0.0001675056074 0.0001633827306 0)
(-0.0003879995521 0.0001187175527 0)
(-0.0005523148687 7.51318102e-05 0)
(-0.0006627541671 3.342730191e-05 0)
(-0.0007225941968 -5.599445898e-06 0)
(-0.0007360283272 -4.119405377e-05 0)
(-0.0007080616469 -7.267986255e-05 0)
(-0.0006443643628 -9.948682821e-05 0)
(-0.0005511283374 -0.0001211635915 0)
(-0.0004349039817 -0.000137399222 0)
(-0.0003022950439 -0.0001479877204 0)
(-0.0001598748415 -0.0001528388806 0)
(-1.411267219e-05 -0.0001519510492 0)
(0.00012878177 -0.0001453718955 0)
(0.0002628732588 -0.0001331775528 0)
(0.0003825632343 -0.0001154704432 0)
(0.0004826693833 -9.237987924e-05 0)
(0.0005583412715 -6.40839588e-05 0)
(0.0006051276529 -3.084179435e-05 0)
(0.0006190337284 6.958329984e-06 0)
(0.0005966278523 4.874615064e-05 0)
(0.0005351979584 9.371684744e-05 0)
(0.0004329625044 0.0001407902659 0)
(0.0002893176352 0.0001885878061 0)
(0.0001051062329 0.0002354404818 0)
(-0.0001171150826 0.0002794283043 0)
(-0.0003728492121 0.0003184553432 0)
(-0.0006555094426 0.0003503582764 0)
(-0.0009563963667 0.000373055754 0)
(-0.001264838937 0.0003847299859 0)
(-0.001568541826 0.0003840352064 0)
(-0.001854163532 0.0003703001791 0)
(-0.002108107191 0.0003436698911 0)
(-0.002317427884 0.0003051232606 0)
(-0.002470699838 0.0002563857921 0)
(-0.002558770401 0.000199840587 0)
(-0.002575570478 0.0001384975469 0)
(-0.002518753474 7.584811106e-05 0)
(-0.002389902642 1.536538533e-05 0)
(-0.002194078745 -3.995476466e-05 0)
(-0.001939530962 -8.783967914e-05 0)
(-0.001636813698 -0.0001264840207 0)
(-0.00129851303 -0.0001544293898 0)
(-0.0009387994714 -0.0001708331145 0)
(-0.0005725004197 -0.0001755767806 0)
(-0.0002142548033 -0.0001692715184 0)
(0.0001223392857 -0.0001532024569 0)
(0.0004254903401 -0.0001292050841 0)
(0.0006858269576 -9.948609268e-05 0)
(0.0008967943433 -6.640759362e-05 0)
(0.001054844552 -3.22661476e-05 0)
(0.001159278895 9.233517736e-07 0)
(0.001211947524 3.147846854e-05 0)
(0.001216783402 5.808962183e-05 0)
(0.001179254321 7.986476003e-05 0)
(0.001105857196 9.633408005e-05 0)
(0.001003626109 0.0001073917057 0)
(0.0008796997887 0.0001132280028 0)
(0.000740976672 0.000114256022 0)
(0.0005938440567 0.0001110509942 0)
(0.000443991919 0.0001042873254 0)
(0.0002963006101 9.467270726e-05 0)
(0.0001547934778 8.290498365e-05 0)
(2.264226687e-05 6.964322572e-05 0)
(-9.779386544e-05 5.548093601e-05 0)
(-0.0002048944916 4.092963063e-05 0)
(-0.000297680315 2.641126469e-05 0)
(-0.0003757071381 1.225483122e-05 0)
(-0.0004389561649 -1.299103621e-06 0)
(-0.00048772874 -1.40928989e-05 0)
(-0.0005225493203 -2.604025971e-05 0)
(-0.0005440782027 -3.711562049e-05 0)
(-0.0005530438541 -4.733919605e-05 0)
(-0.0005501880865 -5.676762302e-05 0)
(-0.0005362178379 -6.548961252e-05 0)
(-0.0005117685526 -7.362587993e-05 0)
(-0.0004773690621 -8.132800143e-05 0)
(-0.0004334270228 -8.875419442e-05 0)
(-0.0003802693757 -9.598094273e-05 0)
(-0.00031828839 -0.0001028146453 0)
(-0.0002483004667 -0.0001084473399 0)
(-0.0001723827503 -0.0001108386053 0)
(-9.524826292e-05 -0.0001057597772 0)
(-2.830340762e-05 -8.560922949e-05 0)
(6.098881616e-06 -3.985676047e-05 0)
(-3.758509748e-05 0.0001655971366 0)
(-0.0001888837205 0.000275354832 0)
(-0.0003480710578 0.0002706571648 0)
(-0.000477296515 0.0002172278666 0)
(-0.0005590417005 0.0001473197211 0)
(-0.000589143667 7.258322099e-05 0)
(-0.0005654189322 -4.866558297e-06 0)
(-0.0004854715787 -8.623207263e-05 0)
(-0.0003460356751 -0.000173191542 0)
(-0.0001430417252 -0.0002669517938 0)
(0.0001281100826 -0.0003680935063 0)
(0.000472085673 -0.0004765588997 0)
(0.0008932581941 -0.0005917126225 0)
(0.001395340347 -0.0007123458461 0)
(0.001981007627 -0.0008366421186 0)
(0.002651491084 -0.0009621355352 0)
(0.003406143971 -0.001085691543 0)
(0.004242015235 -0.001203540834 0)
(0.005153463537 -0.001311383729 0)
(0.006131862738 -0.001404572172 0)
(0.007165450793 -0.00147836515 0)
(0.008239363745 -0.001528237719 0)
(0.009335876643 -0.001550212335 0)
(0.01043485867 -0.001541174981 0)
(0.01151441996 -0.001499133271 0)
(0.01255169501 -0.001423381098 0)
(0.01352369687 -0.001314547667 0)
(0.01440817239 -0.001174527848 0)
(0.01518437919 -0.001006306586 0)
(0.01583377936 -0.0008137095812 0)
(0.01634071636 -0.000601272967 0)
(0.01669155976 -0.0003735380856 0)
(0.01687932871 -0.0001363255379 0)
(0.01689715635 0.0001026191744 0)
(0.01674501672 0.0003356692304 0)
(0.0164275286 0.0005566816845 0)
(0.01595327987 0.0007605287914 0)
(0.01533432184 0.0009430989442 0)
(0.01458577861 0.001101258953 0)
(0.01372490517 0.001232959214 0)
(0.01277054514 0.001337005671 0)
(0.01174272632 0.001413179361 0)
(0.01066173361 0.001462051719 0)
(0.009547622442 0.001484847616 0)
(0.008419697418 0.001483281272 0)
(0.00729609916 0.001459382433 0)
(0.006193504119 0.001415337007 0)
(0.005126942854 0.001353369064 0)
(0.004109694162 0.001275696119 0)
(0.003153242759 0.001184572814 0)
(0.002267470561 0.001082369951 0)
(0.001460289083 0.00097186338 0)
(0.0007372732625 0.0008562894558 0)
(0.0001027796683 0.0007381358034 0)
(-0.0004431287228 0.0006183492003 0)
(-0.0009003685886 0.0004984230129 0)
(-0.001270317089 0.0003802575568 0)
(-0.001555854147 0.0002659075555 0)
(-0.001761365194 0.0001574619137 0)
(-0.001892696283 5.69440757e-05 0)
(-0.00195703353 -3.378182569e-05 0)
(-0.001962718292 -0.0001130966283 0)
(-0.001919000305 -0.0001796962215 0)
(-0.001835799102 -0.0002326209465 0)
(-0.001723432744 -0.0002713331257 0)
(-0.001592099654 -0.0002956179483 0)
(-0.001451844666 -0.000305566391 0)
(-0.00131229023 -0.0003015057263 0)
(-0.001182429441 -0.0002839248793 0)
(-0.001070545019 -0.0002534431532 0)
(-0.0009840507909 -0.0002107893322 0)
(-0.0009294389228 -0.000156748499 0)
(-0.0009123026887 -9.217199268e-05 0)
(-0.0009372749698 -1.805496872e-05 0)
(-0.00100797203 6.438229771e-05 0)
(-0.001126903992 0.0001535999123 0)
(-0.001295348281 0.0002476431909 0)
(-0.001513183287 0.0003440639177 0)
(-0.001778686867 0.0004398694691 0)
(-0.002088314375 0.0005315277613 0)
(-0.002436479654 0.0006150335058 0)
(-0.002815372277 0.0006860457342 0)
(-0.003214853864 0.0007401058466 0)
(-0.003622485298 0.0007729358211 0)
(-0.004023732349 0.0007808186336 0)
(-0.004402396224 0.000761043802 0)
(-0.004741294283 0.0007123457499 0)
(-0.005023180049 0.0006352252896 0)
(-0.005231833723 0.0005320255669 0)
(-0.005353142204 0.000406765592 0)
(-0.005376011266 0.0002649539829 0)
(-0.00529339499 0.0001135551299 0)
(-0.00510333128 -3.911975661e-05 0)
(-0.004809284029 -0.0001853499857 0)
(-0.004418868136 -0.000318830713 0)
(-0.0039426852 -0.0004338305434 0)
(-0.003396103259 -0.0005254642416 0)
(-0.002797450335 -0.0005900594164 0)
(-0.002166985314 -0.0006254212244 0)
(-0.001526002821 -0.0006310422703 0)
(-0.0008957366918 -0.000608143173 0)
(-0.0002962691152 -0.0005595855226 0)
(0.000254496372 -0.0004896339996 0)
(0.0007417209057 -0.0004035831114 0)
(0.001154282377 -0.0003072996731 0)
(0.001485164245 -0.0002067026061 0)
(0.001731610045 -0.0001073310932 0)
(0.001894899163 -1.394408072e-05 0)
(0.001979898935 6.992929247e-05 0)
(0.001993892923 0.0001417093176 0)
(0.001945929014 0.0001998475659 0)
(0.001846076884 0.0002437286298 0)
(0.001704804643 0.0002735345194 0)
(0.001532457747 0.000290071082 0)
(0.00133879532 0.0002946059166 0)
(0.001132815336 0.0002887030586 0)
(0.0009224388551 0.0002740915528 0)
(0.0007143914889 0.0002525460337 0)
(0.0005141912904 0.000225793625 0)
(0.0003261638689 0.0001954296017 0)
(0.0001535258485 0.0001628624792 0)
(-1.499865366e-06 0.0001292892568 0)
(-0.0001375468497 9.568283835e-05 0)
(-0.0002539549989 6.278673355e-05 0)
(-0.0003506157392 3.113170839e-05 0)
(-0.0004278281835 1.057369559e-06 0)
(-0.0004861743193 -2.725926457e-05 0)
(-0.0005264099416 -5.377061912e-05 0)
(-0.0005493783 -7.852802384e-05 0)
(-0.0005559427861 -0.0001016589483 0)
(-0.0005469475483 -0.0001233654625 0)
(-0.0005231441426 -0.0001439272969 0)
(-0.0004851479322 -0.0001636623095 0)
(-0.000433479229 -0.000182732498 0)
(-0.0003688047528 -0.0002006470473 0)
(-0.0002924968231 -0.0002153717667 0)
(-0.0002076106028 -0.0002220913532 0)
(-0.0001199760766 -0.0002118822168 0)
(-4.170391113e-05 -0.0001707162331 0)
(3.793651805e-06 -7.978805542e-05 0)
(-3.681019682e-05 0.0002549514167 0)
(-0.0001802759281 0.0004107997928 0)
(-0.0003230076217 0.0003881908291 0)
(-0.0004266679798 0.0002900893824 0)
(-0.0004729536894 0.0001655975448 0)
(-0.000456958138 3.256228331e-05 0)
(-0.0003756963188 -0.0001056932924 0)
(-0.0002260504875 -0.000250871926 0)
(-3.892840293e-06 -0.0004055724762 0)
(0.0002958435911 -0.0005717283443 0)
(0.0006787381274 -0.0007502014635 0)
(0.001150453728 -0.0009408092322 0)
(0.001716314584 -0.001142391375 0)
(0.002380874132 -0.001352808291 0)
(0.003147450693 -0.00156887711 0)
(0.004017617306 -0.001786298391 0)
(0.004990656184 -0.001999623942 0)
(0.006063011829 -0.002202313805 0)
(0.007227792082 -0.002386916309 0)
(0.008474380748 -0.002545378234 0)
(0.009788227114 -0.002669481352 0)
(0.01115087151 -0.002751374109 0)
(0.01254024105 -0.002784142062 0)
(0.01393122027 -0.002762351102 0)
(0.01529646818 -0.002682489907 0)
(0.01660741197 -0.002543255146 0)
(0.01783532935 -0.0023456386 0)
(0.0189524247 -0.002092817499 0)
(0.01993281655 -0.001789876247 0)
(0.02075334684 -0.001443402101 0)
(0.02139451687 -0.001061163301 0)
(0.02183975492 -0.0006517446898 0)
(0.0220785132 -0.0002247295767 0)
(0.02210339687 0.0002075226731 0)
(0.02191222686 0.0006317521303 0)
(0.02150962221 0.001036997785 0)
(0.02090487094 0.001413851192 0)
(0.02011168948 0.001754522516 0)
(0.01914785501 0.00205283664 0)
(0.01803414147 0.002304361037 0)
(0.01679378417 0.002506208439 0)
(0.01545200009 0.002657215083 0)
(0.0140347922 0.002757699592 0)
(0.01256830538 0.002809273801 0)
(0.01107808598 0.002814600344 0)
(0.009588445794 0.002777109719 0)
(0.008121949816 0.002700717443 0)
(0.006699057083 0.002589583765 0)
(0.00533789461 0.00244795818 0)
(0.00405413161 0.002280158481 0)
(0.002861240249 0.002090633685 0)
(0.001770322785 0.001884105511 0)
(0.0007892114147 0.0016663194 0)
(-7.427845857e-05 0.001443565524 0)
(-0.0008205505146 0.001219070709 0)
(-0.001450604509 0.0009956439229 0)
(-0.001967082834 0.0007768756147 0)
(-0.00237465252 0.0005666138591 0)
(-0.002679964245 0.0003687211599 0)
(-0.00289157741 0.0001868856286 0)
(-0.003019784931 2.444754752e-05 0)
(-0.003076351796 -0.0001157562588 0)
(-0.003074160882 -0.0002315201042 0)
(-0.003026901555 -0.0003213118588 0)
(-0.002948560173 -0.0003844166469 0)
(-0.00285306773 -0.0004207752953 0)
(-0.002753828465 -0.0004309438156 0)
(-0.002663488725 -0.0004159476961 0)
(-0.002593694407 -0.0003772089029 0)
(-0.002554693075 -0.0003164444047 0)
(-0.002555249274 -0.0002355705849 0)
(-0.002602720792 -0.0001366341735 0)
(-0.002702800218 -2.182019315e-05 0)
(-0.002859516938 0.0001064786635 0)
(-0.003075186736 0.0002455694356 0)
(-0.003350369106 0.0003923480553 0)
(-0.003683818166 0.0005431833447 0)
(-0.004072422884 0.0006938173748 0)
(-0.004511127451 0.0008393029343 0)
(-0.0049928305 0.0009740029718 0)
(-0.005508281614 0.00109167873 0)
(-0.006045998341 0.001185684385 0)
(-0.006592243557 0.001249281358 0)
(-0.007131116092 0.001276074805 0)
(-0.007644791513 0.001260579458 0)
(-0.008113974252 0.001198893989 0)
(-0.008518582085 0.001089380752 0)
(-0.008838672435 0.0009331936145 0)
(-0.009055611172 0.0007344581312 0)
(-0.009153286387 0.0005000458469 0)
(-0.009119072668 0.0002393197857 0)
(-0.008944944778 -3.566668556e-05 0)
(-0.008630152543 -0.0003110220439 0)
(-0.008178358554 -0.0005743748801 0)
(-0.007597415543 -0.0008147119713 0)
(-0.006902635911 -0.001021786752 0)
(-0.006112929706 -0.00118679779 0)
(-0.005250867044 -0.001303197701 0)
(-0.004341600054 -0.001367001572 0)
(-0.003411737172 -0.001377011959 0)
(-0.002488131382 -0.001334921457 0)
(-0.001596638717 -0.001245217601 0)
(-0.0007609166809 -0.001114861856 0)
(-1.342516824e-06 -0.0009527482533 0)
(0.0006658632623 -0.0007690054444 0)
(0.00122929322 -0.0005742089299 0)
(0.001682580875 -0.0003786142119 0)
(0.002024192304 -0.0001914794776 0)
(0.002257753471 -2.027012149e-05 0)
(0.002391075445 0.0001298932585 0)
(0.002434759169 0.0002557908706 0)
(0.002401030687 0.0003558466095 0)
(0.002302905425 0.0004299595751 0)
(0.00215350353 0.000479190668 0)
(0.001965517528 0.0005054981275 0)
(0.001750779857 0.0005114576507 0)
(0.001519967581 0.0005000237647 0)
(0.001282363489 0.0004743071632 0)
(0.001045863488 0.0004373910597 0)
(0.0008169500601 0.0003921969314 0)
(0.0006006743774 0.0003413695527 0)
(0.0004008019681 0.0002872066459 0)
(0.0002199661345 0.0002316155324 0)
(5.98324847e-05 0.0001761019738 0)
(-7.871817981e-05 0.0001217900898 0)
(-0.0001954116878 6.945549568e-05 0)
(-0.0002904223361 1.957100128e-05 0)
(-0.0003642342064 -2.763590623e-05 0)
(-0.000417530432 -7.213282649e-05 0)
(-0.0004511034034 -0.0001140302224 0)
(-0.0004657805998 -0.000153553637 0)
(-0.0004624069049 -0.0001910343154 0)
(-0.000441745954 -0.0002268558047 0)
(-0.0004044501564 -0.0002612166608 0)
(-0.0003512232337 -0.0002934296632 0)
(-0.0002834273263 -0.0003204794381 0)
(-0.0002043131612 -0.0003348736766 0)
(-0.0001202597931 -0.0003225087918 0)
(-4.361038412e-05 -0.0002617545253 0)
(3.030902189e-06 -0.0001238867454 0)
(-3.559032405e-05 0.00033785108 0)
(-0.0001687145539 0.000530662427 0)
(-0.0002931861976 0.0004820677368 0)
(-0.0003709501134 0.0003310255025 0)
(-0.0003833432463 0.0001432180839 0)
(-0.0003247458091 -5.754407226e-05 0)
(-0.0001913802409 -0.0002667629114 0)
(2.083424314e-05 -0.0004868139062 0)
(0.0003171592464 -0.0007213210905 0)
(0.0007038311078 -0.0009729510198 0)
(0.001187680025 -0.0012428887 0)
(0.001775673067 -0.001530832164 0)
(0.002474439564 -0.001835048741 0)
(0.003289766113 -0.002152342463 0)
(0.004226034261 -0.00247794392 0)
(0.005285586524 -0.002805386338 0)
(0.006468040072 -0.003126448227 0)
(0.007769585239 -0.003431233697 0)
(0.009182340177 -0.003708435857 0)
(0.01069383919 -0.003945806495 0)
(0.01228674224 -0.004130821012 0)
(0.01393884962 -0.004251491595 0)
(0.01562346976 -0.004297248327 0)
(0.0173101499 -0.004259777163 0)
(0.01896572576 -0.004133699333 0)
(0.02055559599 -0.003917004086 0)
(0.02204509434 -0.003611175867 0)
(0.02340083435 -0.003221025926 0)
(0.02459192714 -0.002754271875 0)
(0.0255909364 -0.002220948139 0)
(0.02637490834 -0.001632816287 0)
(0.026924988 -0.001003009051 0)
(0.02722765747 -0.0003453539043 0)
(0.02727547286 0.0003224946599 0)
(0.02706392153 0.0009809944955 0)
(0.02659770356 0.001613568582 0)
(0.02588652172 0.00220567061 0)
(0.02494530451 0.002744969679 0)
(0.02379385883 0.003221369411 0)
(0.02245575349 0.003627177479 0)
(0.02095792332 0.003956990968 0)
(0.01933013395 0.004208025701 0)
(0.01760351256 0.004379816093 0)
(0.01580981866 0.004474023054 0)
(0.01398049311 0.004494138302 0)
(0.01214578488 0.004445101025 0)
(0.01033400782 0.004332875292 0)
(0.008570969073 0.00416404691 0)
(0.006879589535 0.003945496657 0)
(0.005279678401 0.003684230303 0)
(0.003788070986 0.003387386752 0)
(0.002418932634 0.003062165026 0)
(0.001182014551 0.00271654566 0)
(8.784689898e-05 0.002361469039 0)
(-0.0008607844771 0.002005275533 0)
(-0.001667133017 0.001652690405 0)
(-0.002335260061 0.001309322823 0)
(-0.002871751284 0.0009812548238 0)
(-0.003285618374 0.0006745690926 0)
(-0.003588218304 0.0003950362269 0)
(-0.003793046488 0.0001478262893 0)
(-0.003915411874 -6.273761892e-05 0)
(-0.003971963081 -0.0002333862019 0)
(-0.003980329471 -0.0003619815857 0)
(-0.003958401995 -0.0004476888104 0)
(-0.003923805944 -0.0004907627277 0)
(-0.003893585855 -0.0004925562243 0)
(-0.003883504129 -0.0004552681357 0)
(-0.003907651486 -0.000381799051 0)
(-0.003978257913 -0.0002755776227 0)
(-0.004105488905 -0.0001403788421 0)
(-0.00429716517 1.975025138e-05 0)
(-0.004558681011 0.0002005102423 0)
(-0.004892945912 0.000397335289 0)
(-0.005300375938 0.0006053318972 0)
(-0.005778941037 0.0008191922249 0)
(-0.006324253547 0.001033096878 0)
(-0.006929679022 0.001240621674 0)
(-0.007586438515 0.001434670562 0)
(-0.008283676514 0.001607464382 0)
(-0.009008489013 0.001750625438 0)
(-0.009745929245 0.001855396008 0)
(-0.01047903352 0.001913011448 0)
(-0.01118891142 0.001915232333 0)
(-0.01185493832 0.001855051597 0)
(-0.01245512776 0.001727575742 0)
(-0.01296672379 0.001530935339 0)
(-0.01336706713 0.001267066989 0)
(-0.01363484187 0.0009420792783 0)
(-0.01375144035 0.000566011598 0)
(-0.01370178628 0.0001526011758 0)
(-0.01347635827 -0.0002803136082 0)
(-0.01307476839 -0.0007132007501 0)
(-0.01249694831 -0.00112764245 0)
(-0.01175548217 -0.001506550639 0)
(-0.0108670203 -0.001834273825 0)
(-0.009853372218 -0.002097751036 0)
(-0.008740627675 -0.002287030458 0)
(-0.007558081282 -0.002395764806 0)
(-0.006337044149 -0.002421599067 0)
(-0.005109524353 -0.002366356832 0)
(-0.003906856719 -0.002235951047 0)
(-0.002758358806 -0.002039995828 0)
(-0.001690089371 -0.001791125184 0)
(-0.0007237864997 -0.001504067973 0)
(0.0001239369821 -0.001194568702 0)
(0.000842090817 -0.0008782971493 0)
(0.001425424431 -0.0005697709307 0)
(0.001874151105 -0.0002815210183 0)
(0.002193270396 -2.365468918e-05 0)
(0.002393409287 0.0001977551602 0)
(0.002488325712 0.0003797714406 0)
(0.002493091473 0.0005216707722 0)
(0.002423128295 0.0006245097829 0)
(0.002293617564 0.0006908273975 0)
(0.002118966361 0.0007242007285 0)
(0.001912423892 0.0007288848331 0)
(0.001685811494 0.0007094738741 0)
(0.001449367242 0.0006706025377 0)
(0.001211665891 0.0006167189038 0)
(0.0009797137979 0.0005519331262 0)
(0.0007590659022 0.0004799098796 0)
(0.0005538617076 0.000403752999 0)
(0.0003670402018 0.0003259727452 0)
(0.0002005382819 0.0002485029837 0)
(5.548396762e-05 0.0001727480204 0)
(-6.762447781e-05 9.964390596e-05 0)
(-0.0001687533784 2.974159918e-05 0)
(-0.0002481980466 -3.671982659e-05 0)
(-0.0003064724543 -9.97531459e-05 0)
(-0.0003442140726 -0.0001595592086 0)
(-0.0003621291131 -0.0002164753998 0)
(-0.0003609841722 -0.000270869528 0)
(-0.0003415217062 -0.0003228253528 0)
(-0.0003044828117 -0.0003713349878 0)
(-0.000251006328 -0.0004125495127 0)
(-0.0001838905191 -0.0004368484813 0)
(-0.0001093383053 -0.0004254783374 0)
(-3.977554602e-05 -0.0003488564251 0)
(3.148110675e-06 -0.0001671025331 0)
(-3.459754289e-05 0.0004157273964 0)
(-0.0001601154785 0.0006379386179 0)
(-0.0002702697504 0.0005563845926 0)
(-0.0003268118143 0.0003451807016 0)
(-0.0003104877144 8.628179552e-05 0)
(-0.0002148909467 -0.0001907125966 0)
(-3.533084567e-05 -0.0004803418933 0)
(0.0002335016813 -0.0007858637597 0)
(0.0005981804156 -0.001112003139 0)
(0.001066419881 -0.00146227598 0)
(0.001646670239 -0.001838281945 0)
(0.002347623992 -0.002239650709 0)
(0.003177682857 -0.002664064407 0)
(0.004144360954 -0.003107166482 0)
(0.005253596544 -0.00356237378 0)
(0.006508962052 -0.004020677958 0)
(0.007910790352 -0.004470545575 0)
(0.009455274089 -0.004898013958 0)
(0.01113362316 -0.005287053859 0)
(0.01293138572 -0.005620236711 0)
(0.01482805222 -0.005879690295 0)
(0.01679705524 -0.006048282889 0)
(0.01880624099 -0.006110912567 0)
(0.0208188302 -0.006055736307 0)
(0.022794799 -0.005875159957 0)
(0.02469254344 -0.005566444699 0)
(0.02647064413 -0.005131865358 0)
(0.02808954842 -0.00457843503 0)
(0.02951305372 -0.003917278792 0)
(0.03070943771 -0.003162781986 0)
(0.03165250651 -0.00233166444 0)
(0.03232166164 -0.001442352999 0)
(0.03270076278 -0.0005133820354 0)
(0.03278373552 0.0004318507537 0)
(0.03256356228 0.001367053752 0)
(0.03204538841 0.002269374054 0)
(0.03123943195 0.003118424395 0)
(0.03016178143 0.003896610599 0)
(0.02883401667 0.004589142617 0)
(0.02728214189 0.005184221188 0)
(0.02553645776 0.005673148388 0)
(0.02363095858 0.006050778772 0)
(0.0216015942 0.006315250908 0)
(0.01948553223 0.006467837206 0)
(0.01732000869 0.0065126362 0)
(0.01514121779 0.006456111568 0)
(0.01298331272 0.006306531122 0)
(0.01087758451 0.0060733699 0)
(0.0088518763 0.005766763667 0)
(0.006930241682 0.005397111384 0)
(0.005132885597 0.004974922376 0)
(0.003476560468 0.004510722225 0)
(0.001974042468 0.004015186138 0)
(0.0006340016939 0.003501639442 0)
(-0.0005324660697 0.002986763388 0)
(-0.001529821696 0.00247978661 0)
(-0.002364334183 0.001988494047 0)
(-0.003044642292 0.001521520524 0)
(-0.00358224749 0.001087591679 0)
(-0.003991411554 0.0006949845104 0)
(-0.004288967406 0.0003510873033 0)
(-0.004493951287 6.202041078e-05 0)
(-0.004627021224 -0.0001676769511 0)
(-0.004710026024 -0.0003351954713 0)
(-0.004765108342 -0.0004396417564 0)
(-0.004813932343 -0.0004818285709 0)
(-0.004877260637 -0.0004642414565 0)
(-0.004974167946 -0.0003907635291 0)
(-0.005121539943 -0.0002663860928 0)
(-0.005333634064 -9.694076462e-05 0)
(-0.00562172511 0.0001111053321 0)
(-0.005993849009 0.0003508078533 0)
(-0.00645465289 0.0006148602397 0)
(-0.007005352269 0.0008956610169 0)
(-0.007643816369 0.001185346194 0)
(-0.008364784046 0.001475791509 0)
(-0.009160182894 0.001758583319 0)
(-0.01001950631 0.00202495463 0)
(-0.0109301738 0.002265702117 0)
(-0.01187780188 0.002471121392 0)
(-0.01284635125 0.002631025978 0)
(-0.01381816089 0.002734916077 0)
(-0.01477392558 0.002772342931 0)
(-0.01569266262 0.00273346 0)
(-0.01655168639 0.002609802929 0)
(-0.01732673822 0.002395383476 0)
(-0.01799235884 0.002087851703 0)
(-0.01852264327 0.001689666854 0)
(-0.01889267907 0.00120880315 0)
(-0.01908012279 0.0006585880331 0)
(-0.01906604171 5.746493423e-05 0)
(-0.0188390753 -0.0005711013462 0)
(-0.01839373026 -0.001200422827 0)
(-0.01773153327 -0.001804347047 0)
(-0.01686507687 -0.002358649271 0)
(-0.01581243236 -0.002841924143 0)
(-0.0145976397 -0.003236047485 0)
(-0.01324981434 -0.003526898728 0)
(-0.01180207574 -0.003705076797 0)
(-0.01029027964 -0.003766468345 0)
(-0.008751570958 -0.00371254872 0)
(-0.007222851438 -0.003550321905 0)
(-0.005739268356 -0.003291873747 0)
(-0.004332806322 -0.002953554057 0)
(-0.003031066607 -0.002554843802 0)
(-0.001856309405 -0.00211700064 0)
(-0.0008247968115 -0.001661611893 0)
(5.349291582e-05 -0.001209196825 0)
(0.0007747930224 -0.0007779621589 0)
(0.001341414379 -0.0003828959052 0)
(0.001760084691 -3.564639651e-05 0)
(0.00204272501 0.0002567472839 0)
(0.002206467339 0.00049269447 0)
(0.002268863181 0.0006731614774 0)
(0.002247488924 0.0008011392351 0)