/*--------------------------------*- C++ -*----------------------------------*\
| =========                 |                                                 |
| \\      /  F ield         | OpenFOAM: The Open Source CFD Toolbox           |
|  \\    /   O peration     | Version:  5.x                                   |
|   \\  /    A nd           | Web:      www.OpenFOAM.org                      |
|    \\/     M anipulation  |                                                 |
\*---------------------------------------------------------------------------*/
FoamFile
{
    version     2.0;
    format      ascii;
    class       volVectorField;
    location    "0.5";
    object      Urom;
}
// * * * * * * * * * * * * * * * * * * * * * * * * * * * * * * * * * * * * * //

dimensions      [0 1 -1 0 0 0 0];

internalField   nonuniform List<vector> 
17457
(
(-1.17972 -0.00615798 0)
(-1.05056 -0.00636233 0)
(-2.26545 -0.0594428 0)
(-0.936417 -0.00591276 0)
(-2.01835 -0.0540396 0)
(-2.46343 -0.132081 0)
(-0.839995 -0.00549591 0)
(-1.8192 -0.0458825 0)
(-2.23075 -0.110512 0)
(-2.2859 -0.194141 0)
(-0.752587 -0.00594389 0)
(-1.66246 -0.038367 0)
(-2.0754 -0.0867482 0)
(-2.15004 -0.14931 0)
(-2.10344 -0.228485 0)
(-0.667391 -0.0063484 0)
(-1.52879 -0.0349082 0)
(-1.9643 -0.0697865 0)
(-2.08221 -0.110935 0)
(-2.05776 -0.165938 0)
(-2.03107 -0.241183 0)
(-0.591424 -0.00531878 0)
(-1.40594 -0.0324916 0)
(-1.86129 -0.0628683 0)
(-2.03629 -0.0907514 0)
(-2.04368 -0.119428 0)
(-2.02163 -0.170045 0)
(-2.04082 -0.248742 0)
(-0.536882 -0.00317518 0)
(-1.30299 -0.0258831 0)
(-1.75789 -0.0579536 0)
(-1.97944 -0.0855333 0)
(-2.0379 -0.0989304 0)
(-2.02641 -0.119201 0)
(-2.02289 -0.170825 0)
(-2.08622 -0.264514 0)
(-0.503726 -0.00155928 0)
(-1.23282 -0.0160752 0)
(-1.67214 -0.045131 0)
(-1.90467 -0.0810882 0)
(-2.01842 -0.098936 0)
(-2.03901 -0.0987742 0)
(-2.03309 -0.114968 0)
(-2.04197 -0.174505 0)
(-2.14044 -0.292278 0)
(-0.482013 -0.000690189 0)
(-1.18882 -0.00919183 0)
(-1.61859 -0.0279417 0)
(-1.83229 -0.0626993 0)
(-1.96545 -0.100699 0)
(-2.03503 -0.106732 0)
(-2.05495 -0.0958618 0)
(-2.05101 -0.109262 0)
(-2.07104 -0.183779 0)
(-2.19075 -0.327611 0)
(-0.466486 -0.000436978 0)
(-1.15194 -0.00604736 0)
(-1.58492 -0.0181893 0)
(-1.78609 -0.0388094 0)
(-1.8882 -0.0809751 0)
(-1.98426 -0.120565 0)
(-2.04541 -0.115358 0)
(-2.07091 -0.0937598 0)
(-2.06556 -0.106099 0)
(-2.10002 -0.200285 0)
(-2.22659 -0.365156 0)
(-0.460104 0.000356509 0)
(-1.11836 -0.0035065 0)
(-1.54579 -0.0162199 0)
(-1.76364 -0.0274163 0)
(-1.83297 -0.0481256 0)
(-1.89657 -0.102628 0)
(-1.98242 -0.142997 0)
(-2.04929 -0.127672 0)
(-2.06814 -0.0945284 0)
(-2.06292 -0.110719 0)
(-2.11295 -0.226819 0)
(-2.23769 -0.404643 0)
(-0.464231 0.00135253 0)
(-1.09933 0.000877768 0)
(-1.49578 -0.012576 0)
(-1.7368 -0.0293966 0)
(-1.82302 -0.0312631 0)
(-1.83531 -0.0564368 0)
(-1.89579 -0.125816 0)
(-1.98253 -0.16623 0)
(-2.04129 -0.140661 0)
(-2.04023 -0.0990552 0)
(-2.03585 -0.125758 0)
(-2.09713 -0.265282 0)
(-2.21821 -0.451048 0)
(-0.472981 0.00170696 0)
(-1.09436 0.00445716 0)
(-1.45264 -0.00460993 0)
(-1.6831 -0.0288395 0)
(-1.82248 -0.0383273 0)
(-1.8397 -0.0284144 0)
(-1.84075 -0.0631832 0)
(-1.91607 -0.146961 0)
(-1.99404 -0.184453 0)
(-2.02067 -0.148826 0)
(-1.99391 -0.105681 0)
(-1.98793 -0.150148 0)
(-2.05163 -0.314314 0)
(-2.16604 -0.50912 0)
(-0.479314 0.00142778 0)
(-1.08847 0.00470761 0)
(-1.41852 0.000379914 0)
(-1.61374 -0.0203857 0)
(-1.78114 -0.0474803 0)
(-1.86494 -0.0405957 0)
(-1.85343 -0.0204629 0)
(-1.87635 -0.0688766 0)
(-1.96625 -0.161521 0)
(-2.01198 -0.191081 0)
(-1.99246 -0.147847 0)
(-1.9401 -0.110457 0)
(-1.92945 -0.179144 0)
(-1.98518 -0.370201 0)
(-2.07801 -0.57773 0)
(-0.482591 0.00155681 0)
(-1.07203 0.0026473 0)
(-1.37201 -0.00228354 0)
(-1.53891 -0.0167788 0)
(-1.69137 -0.0454245 0)
(-1.83767 -0.0665962 0)
(-1.88683 -0.0387556 0)
(-1.87837 -0.0131664 0)
(-1.94664 -0.0757449 0)
(-2.02987 -0.165812 0)
(-2.02779 -0.183327 0)
(-1.96143 -0.135635 0)
(-1.8887 -0.111185 0)
(-1.86729 -0.207114 0)
(-1.90427 -0.427119 0)
(-1.9474 -0.650158 0)
(-0.485853 0.00213504 0)
(-1.0469 0.00174033 0)
(-1.30139 -0.00885513 0)
(-1.43768 -0.0265265 0)
(-1.57135 -0.048027 0)
(-1.73107 -0.0795677 0)
(-1.85914 -0.0874003 0)
(-1.8897 -0.0392481 0)
(-1.91826 -0.0151962 0)
(-2.03001 -0.0853751 0)
(-2.08127 -0.159991 0)
(-2.0323 -0.163704 0)
(-1.92808 -0.11385 0)
(-1.8426 -0.108256 0)
(-1.80126 -0.231142 0)
(-1.803 -0.477589 0)
(-1.76876 -0.720276 0)
(-0.485979 0.00242758 0)
(-1.0145 0.0011233 0)
(-1.21387 -0.0130178 0)
(-1.29662 -0.0406151 0)
(-1.41363 -0.0685736 0)
(-1.56974 -0.0931266 0)
(-1.73705 -0.122135 0)
(-1.84311 -0.112714 0)
(-1.87641 -0.0502045 0)
(-1.96738 -0.0337754 0)
(-2.0932 -0.0973745 0)
(-2.1034 -0.148469 0)
(-2.0163 -0.136496 0)
(-1.88902 -0.0879677 0)
(-1.7926 -0.102246 0)
(-1.72414 -0.249451 0)
(-1.66646 -0.514932 0)
(-1.54801 -0.784967 0)
(-0.472566 0.00152255 0)
(-0.963997 -0.00321929 0)
(-1.11423 -0.0174785 0)
(-1.1326 -0.0489354 0)
(-1.2055 -0.0926881 0)
(-1.36594 -0.126812 0)
(-1.54723 -0.150008 0)
(-1.7119 -0.171448 0)
(-1.79641 -0.143748 0)
(-1.8608 -0.0785939 0)
(-2.00633 -0.0686059 0)
(-2.11255 -0.111545 0)
(-2.09092 -0.136374 0)
(-1.97471 -0.106311 0)
(-1.83766 -0.0636535 0)
(-1.72136 -0.0941838 0)
(-1.6186 -0.261202 0)
(-1.48509 -0.537466 0)
(-1.30753 -0.842535 0)
(-0.439499 0.000309929 0)
(-0.878994 -0.012232 0)
(-0.991119 -0.0298134 0)
(-0.961708 -0.0565646 0)
(-0.971563 -0.104417 0)
(-1.10909 -0.162734 0)
(-1.31354 -0.197329 0)
(-1.51236 -0.21546 0)
(-1.66507 -0.222975 0)
(-1.74084 -0.181487 0)
(-1.85301 -0.125118 0)
(-2.01142 -0.112678 0)
(-2.08567 -0.130168 0)
(-2.04114 -0.126872 0)
(-1.90577 -0.0793922 0)
(-1.75984 -0.0431524 0)
(-1.60934 -0.087075 0)
(-1.46175 -0.269776 0)
(-1.26493 -0.551649 0)
(-1.07208 -0.892212 0)
(-0.38817 -0.000890157 0)
(-0.757379 -0.0205323 0)
(-0.830422 -0.0488032 0)
(-0.776023 -0.0753657 0)
(-0.744056 -0.111835 0)
(-0.827069 -0.176144 0)
(-1.03277 -0.245193 0)
(-1.26549 -0.275607 0)
(-1.47654 -0.284123 0)
(-1.61065 -0.272125 0)
(-1.7016 -0.227852 0)
(-1.8445 -0.182105 0)
(-1.97434 -0.159127 0)
(-2.02029 -0.154795 0)
(-1.94875 -0.122157 0)
(-1.80247 -0.062447 0)
(-1.63152 -0.0285905 0)
(-1.43667 -0.0867649 0)
(-1.244 -0.281585 0)
(-1.02513 -0.567896 0)
(-0.849269 -0.935482 0)
(-0.32406 -0.00167448 0)
(-0.612131 -0.0265659 0)
(-0.636853 -0.0640122 0)
(-0.560475 -0.102867 0)
(-0.516579 -0.134359 0)
(-0.563385 -0.179694 0)
(-0.729468 -0.259189 0)
(-0.980689 -0.334011 0)
(-1.23473 -0.35794 0)
(-1.44505 -0.349706 0)
(-1.56716 -0.319547 0)
(-1.68539 -0.281348 0)
(-1.8171 -0.238517 0)
(-1.90515 -0.206272 0)
(-1.9175 -0.182638 0)
(-1.80962 -0.125869 0)
(-1.64688 -0.0588526 0)
(-1.42885 -0.023954 0)
(-1.19577 -0.0990765 0)
(-0.981799 -0.302888 0)
(-0.780455 -0.596603 0)
(-0.629056 -0.976305 0)
(-0.251504 -0.00251024 0)
(-0.455997 -0.0304702 0)
(-0.431399 -0.07247 0)
(-0.323289 -0.12245 0)
(-0.268575 -0.168076 0)
(-0.312111 -0.203061 0)
(-0.448183 -0.25612 0)
(-0.676264 -0.347971 0)
(-0.954226 -0.425156 0)
(-1.22435 -0.440437 0)
(-1.41614 -0.409521 0)
(-1.54681 -0.3698 0)
(-1.67589 -0.335089 0)
(-1.76344 -0.288193 0)
(-1.81397 -0.252346 0)
(-1.771 -0.209782 0)
(-1.62401 -0.139657 0)
(-1.42044 -0.0651268 0)
(-1.14927 -0.0319789 0)
(-0.90241 -0.128055 0)
(-0.698297 -0.340743 0)
(-0.52932 -0.644557 0)
(-0.395037 -1.02083 0)
(-0.173511 -0.00271526 0)
(-0.289809 -0.0343733 0)
(-0.228832 -0.0785336 0)
(-0.0911832 -0.128949 0)
(-0.0115586 -0.188211 0)
(-0.0505854 -0.239927 0)
(-0.191856 -0.277198 0)
(-0.396007 -0.335695 0)
(-0.658431 -0.437644 0)
(-0.954272 -0.517118 0)
(-1.21832 -0.519183 0)
(-1.38986 -0.468075 0)
(-1.54217 -0.424833 0)
(-1.64967 -0.382721 0)
(-1.68827 -0.331674 0)
(-1.69372 -0.292759 0)
(-1.58057 -0.234208 0)
(-1.3903 -0.158388 0)
(-1.12294 -0.074451 0)
(-0.816194 -0.0539121 0)
(-0.58158 -0.176855 0)
(-0.400264 -0.401054 0)
(-0.260876 -0.71553 0)
(-0.135311 -1.07646 0)
(-0.0988764 -0.002583 0)
(-0.116301 -0.0346705 0)
(-0.0260957 -0.0846024 0)
(0.119084 -0.133084 0)
(0.223907 -0.187574 0)
(0.209561 -0.25691 0)
(0.0663893 -0.314769 0)
(-0.153008 -0.351915 0)
(-0.39349 -0.413635 0)
(-0.672065 -0.526241 0)
(-0.970969 -0.607496 0)
(-1.19611 -0.592819 0)
(-1.36707 -0.533441 0)
(-1.52771 -0.483307 0)
(-1.59032 -0.424901 0)
(-1.58821 -0.372206 0)
(-1.52808 -0.325113 0)
(-1.34904 -0.256271 0)
(-1.10383 -0.174324 0)
(-0.773879 -0.0844215 0)
(-0.461514 -0.0910969 0)
(-0.248954 -0.245348 0)
(-0.0833443 -0.484692 0)
(0.031922 -0.811949 0)
(0.156927 -1.14693 0)
(-0.0357895 -0.00210879 0)
(0.0423749 -0.0303083 0)
(0.174738 -0.0824663 0)
(0.309404 -0.137037 0)
(0.41677 -0.183644 0)
(0.433271 -0.243926 0)
(0.316724 -0.325084 0)
(0.0856097 -0.388526 0)
(-0.174723 -0.422113 0)
(-0.425304 -0.488089 0)
(-0.712021 -0.61351 0)
(-0.979577 -0.6908 0)
(-1.15341 -0.664936 0)
(-1.33603 -0.610094 0)
(-1.47309 -0.545315 0)
(-1.48625 -0.469018 0)
(-1.44318 -0.413652 0)
(-1.30728 -0.35255 0)
(-1.07163 -0.276961 0)
(-0.765027 -0.184402 0)
(-0.400034 -0.0987158 0)
(-0.10791 -0.143811 0)
(0.0910432 -0.327759 0)
(0.250877 -0.588885 0)
(0.349307 -0.932098 0)
(0.488723 -1.23156 0)
(0.0194197 -0.00259236 0)
(0.167131 -0.0244934 0)
(0.348594 -0.0688533 0)
(0.480418 -0.129312 0)
(0.566016 -0.179706 0)
(0.59593 -0.225307 0)
(0.517849 -0.295077 0)
(0.313155 -0.38946 0)
(0.0315581 -0.456392 0)
(-0.22584 -0.484991 0)
(-0.48079 -0.560992 0)
(-0.764548 -0.695849 0)
(-0.959612 -0.761542 0)
(-1.09662 -0.742032 0)
(-1.27111 -0.696846 0)
(-1.35607 -0.613292 0)
(-1.32532 -0.523256 0)
(-1.2349 -0.458562 0)
(-1.0297 -0.379703 0)
(-0.742065 -0.296071 0)
(-0.38694 -0.191427 0)
(-0.0248641 -0.122883 0)
(0.237033 -0.208286 0)
(0.436127 -0.416475 0)
(0.591978 -0.708883 0)
(0.691381 -1.06733 0)
(0.864548 -1.32743 0)
(0.0723165 -0.00298744 0)
(0.266888 -0.0224186 0)
(0.47576 -0.0535868 0)
(0.618078 -0.104718 0)
(0.678588 -0.163425 0)
(0.69721 -0.208746 0)
(0.644675 -0.256911 0)
(0.480025 -0.338847 0)
(0.21688 -0.445725 0)
(-0.0588781 -0.511994 0)
(-0.284839 -0.541244 0)
(-0.552843 -0.635141 0)
(-0.806233 -0.766089 0)
(-0.911808 -0.819119 0)
(-1.02468 -0.82604 0)
(-1.15174 -0.788489 0)
(-1.16931 -0.688489 0)
(-1.10255 -0.590119 0)
(-0.961474 -0.505777 0)
(-0.698948 -0.407369 0)
(-0.368288 -0.313407 0)
(0.00610111 -0.201234 0)
(0.336703 -0.159461 0)
(0.577602 -0.277374 0)
(0.781454 -0.507782 0)
(0.933985 -0.838221 0)
(1.06227 -1.20462 0)
(1.27186 -1.43415 0)
(0.119339 -0.00270206 0)
(0.354716 -0.0207168 0)
(0.568776 -0.0457811 0)
(0.712661 -0.0790479 0)
(0.75904 -0.129244 0)
(0.753274 -0.182466 0)
(0.707941 -0.225655 0)
(0.571122 -0.280073 0)
(0.335915 -0.373528 0)
(0.0602057 -0.486688 0)
(-0.156097 -0.54932 0)
(-0.351924 -0.594785 0)
(-0.631122 -0.708217 0)
(-0.813167 -0.817069 0)
(-0.846701 -0.869562 0)
(-0.929602 -0.91008 0)
(-0.976338 -0.874868 0)
(-0.924406 -0.768264 0)
(-0.825262 -0.665006 0)
(-0.632384 -0.552398 0)
(-0.328068 -0.433986 0)
(0.0259031 -0.328873 0)
(0.389234 -0.21777 0)
(0.683391 -0.205681 0)
(0.920981 -0.347782 0)
(1.12386 -0.604644 0)
(1.28172 -0.969252 0)
(1.45781 -1.33304 0)
(1.68236 -1.55625 0)
(0.1549 -0.00199292 0)
(0.425559 -0.0162279 0)
(0.645394 -0.0398506 0)
(0.775749 -0.064924 0)
(0.812396 -0.0953122 0)
(0.781846 -0.141566 0)
(0.728604 -0.18941 0)
(0.612933 -0.235816 0)
(0.396344 -0.297423 0)
(0.119933 -0.39679 0)
(-0.115912 -0.505118 0)
(-0.250886 -0.568168 0)
(-0.436388 -0.6483 0)
(-0.693965 -0.771668 0)
(-0.773998 -0.848832 0)
(-0.769582 -0.918799 0)
(-0.805119 -0.9834 0)
(-0.757634 -0.94541 0)
(-0.644833 -0.846229 0)
(-0.505536 -0.738959 0)
(-0.262302 -0.595801 0)
(0.061624 -0.45943 0)
(0.415116 -0.343562 0)
(0.750336 -0.242258 0)
(1.02652 -0.256711 0)
(1.27037 -0.421055 0)
(1.46858 -0.709511 0)
(1.64243 -1.09412 0)
(1.85735 -1.45001 0)
(2.06932 -1.69533 0)
(0.177539 -0.00121837 0)
(0.470718 -0.00996542 0)
(0.705268 -0.0293594 0)
(0.825252 -0.0559842 0)
(0.848045 -0.0766358 0)
(0.800859 -0.103943 0)
(0.725653 -0.143837 0)
(0.621644 -0.190368 0)
(0.430347 -0.244418 0)
(0.15513 -0.311423 0)
(-0.117454 -0.406548 0)
(-0.273231 -0.499857 0)
(-0.34541 -0.576226 0)
(-0.533112 -0.700446 0)
(-0.712973 -0.815838 0)
(-0.696522 -0.870487 0)
(-0.6779 -0.967306 0)
(-0.64673 -1.03737 0)
(-0.51035 -0.996706 0)
(-0.347714 -0.915836 0)
(-0.154391 -0.802966 0)
(0.129006 -0.635797 0)
(0.449626 -0.486115 0)
(0.785695 -0.361314 0)
(1.09727 -0.273371 0)
(1.37848 -0.309253 0)
(1.62574 -0.501874 0)
(1.81968 -0.819531 0)
(2.00794 -1.2082 0)
(2.23557 -1.55929 0)
(2.41656 -1.84617 0)
(0.190432 -0.000157248 0)
(0.493859 -0.00500794 0)
(0.742654 -0.0166833 0)
(0.868426 -0.0420813 0)
(0.880032 -0.0675468 0)
(0.822716 -0.0848969 0)
(0.723334 -0.107792 0)
(0.61067 -0.14112 0)
(0.444405 -0.191798 0)
(0.18999 -0.255084 0)
(-0.104517 -0.323008 0)
(-0.323465 -0.402846 0)
(-0.385996 -0.479093 0)
(-0.436858 -0.585694 0)
(-0.611269 -0.746761 0)
(-0.672981 -0.837769 0)
(-0.600238 -0.891208 0)
(-0.564354 -1.00961 0)
(-0.450592 -1.06826 0)
(-0.244028 -1.03186 0)
(-0.0374946 -0.972284 0)
(0.215941 -0.85159 0)
(0.519892 -0.673631 0)
(0.824647 -0.516504 0)
(1.14175 -0.384971 0)
(1.44743 -0.307559 0)
(1.7389 -0.3653 0)
(1.98134 -0.591069 0)
(2.16908 -0.929724 0)
(2.35825 -1.31058 0)
(2.57491 -1.66246 0)
(2.71347 -2.00034 0)
(0.200176 0.000117667 0)
(0.508555 -0.00285368 0)
(0.763893 -0.00819495 0)
(0.904762 -0.0258377 0)
(0.919071 -0.0540395 0)
(0.8589 -0.0785825 0)
(0.743994 -0.0942505 0)
(0.603021 -0.109645 0)
(0.441604 -0.138808 0)
(0.219219 -0.197336 0)
(-0.0652949 -0.269835 0)
(-0.328678 -0.332161 0)
(-0.458328 -0.38928 0)
(-0.446297 -0.457848 0)
(-0.508564 -0.607346 0)
(-0.631788 -0.781871 0)
(-0.583794 -0.845166 0)
(-0.497638 -0.914312 0)
(-0.422168 -1.03686 0)
(-0.219555 -1.07586 0)
(0.0353978 -1.05439 0)
(0.28575 -1.01077 0)
(0.58978 -0.884565 0)
(0.893958 -0.709969 0)
(1.18602 -0.549214 0)
(1.49618 -0.412357 0)
(1.80618 -0.343247 0)
(2.09544 -0.426127 0)
(2.32477 -0.682743 0)
(2.49757 -1.03404 0)
(2.67806 -1.40086 0)
(2.86561 -1.76021 0)
(2.94776 -2.15366 0)
(0.211775 0.000137994 0)
(0.528807 -0.00307118 0)
(0.783575 -0.00726322 0)
(0.93636 -0.0159197 0)
(0.96118 -0.0372539 0)
(0.910439 -0.0670766 0)
(0.799735 -0.0941434 0)
(0.631101 -0.107447 0)
(0.44116 -0.112919 0)
(0.231227 -0.140063 0)
(-0.0181424 -0.208353 0)
(-0.285556 -0.288194 0)
(-0.474735 -0.339091 0)
(-0.505087 -0.372661 0)
(-0.459512 -0.451825 0)
(-0.535215 -0.64358 0)
(-0.575067 -0.804501 0)
(-0.464875 -0.851684 0)
(-0.384821 -0.938982 0)
(-0.24742 -1.042 0)
(0.0326403 -1.06276 0)
(0.319982 -1.06229 0)
(0.617009 -1.02631 0)
(0.949677 -0.903729 0)
(1.24531 -0.743097 0)
(1.53812 -0.578782 0)
(1.85354 -0.43829 0)
(2.16016 -0.3795 0)
(2.43053 -0.487318 0)
(2.63752 -0.769298 0)
(2.79119 -1.12615 0)
(2.95874 -1.4781 0)
(3.09844 -1.85776 0)
(3.11029 -2.30666 0)
(0.224052 0.000490684 0)
(0.560334 -0.00387209 0)
(0.816123 -0.0106112 0)
(0.973786 -0.0166231 0)
(1.00272 -0.0282138 0)
(0.959063 -0.0502411 0)
(0.873205 -0.0838877 0)
(0.709445 -0.117393 0)
(0.48282 -0.126278 0)
(0.240289 -0.120757 0)
(0.008751 -0.145169 0)
(-0.224854 -0.224844 0)
(-0.428144 -0.308998 0)
(-0.522744 -0.344752 0)
(-0.471905 -0.361963 0)
(-0.432882 -0.47068 0)
(-0.496057 -0.687456 0)
(-0.4473 -0.820681 0)
(-0.324049 -0.870521 0)
(-0.245946 -0.963404 0)
(-0.0393444 -1.02473 0)
(0.287967 -1.0331 0)
(0.60193 -1.04967 0)
(0.942186 -1.01777 0)
(1.28206 -0.910735 0)
(1.57607 -0.765488 0)
(1.88247 -0.598654 0)
(2.20173 -0.458014 0)
(2.48878 -0.413317 0)
(2.72732 -0.543617 0)
(2.90577 -0.844247 0)
(3.04424 -1.19971 0)
(3.19068 -1.54452 0)
(3.26415 -1.96114 0)
(3.20822 -2.46093 0)
(0.233831 0.0014118 0)
(0.600287 -0.00359098 0)
(0.872193 -0.0156722 0)
(1.02917 -0.0259208 0)
(1.06013 -0.0328512 0)
(1.00098 -0.0438013 0)
(0.929912 -0.0638406 0)
(0.806405 -0.106776 0)
(0.584472 -0.149224 0)
(0.297932 -0.152947 0)
(0.0246668 -0.133324 0)
(-0.186798 -0.153416 0)
(-0.362673 -0.245069 0)
(-0.475202 -0.330911 0)
(-0.474018 -0.351057 0)
(-0.379937 -0.368089 0)
(-0.366235 -0.514441 0)
(-0.384305 -0.731297 0)
(-0.266858 -0.841366 0)
(-0.157224 -0.908915 0)
(-0.0626165 -0.985802 0)
(0.199246 -0.994404 0)
(0.53882 -0.99303 0)
(0.877239 -1.01348 0)
(1.24465 -0.987187 0)
(1.58356 -0.903239 0)
(1.89055 -0.768825 0)
(2.21345 -0.602494 0)
(2.52348 -0.469998 0)
(2.77678 -0.443673 0)
(2.97614 -0.592655 0)
(3.12615 -0.903452 0)
(3.25244 -1.25109 0)
(3.36032 -1.60539 0)
(3.36654 -2.07271 0)
(3.2737 -2.61794 0)
(0.240104 0.00222205 0)
(0.647965 -0.0028406 0)
(0.956162 -0.0199047 0)
(1.12084 -0.0408839 0)
(1.15249 -0.0515748 0)
(1.07182 -0.0584787 0)
(0.971914 -0.0607672 0)
(0.876707 -0.080001 0)
(0.705934 -0.137414 0)
(0.426456 -0.19105 0)
(0.0960208 -0.188852 0)
(-0.161871 -0.14956 0)
(-0.316986 -0.165351 0)
(-0.412948 -0.267346 0)
(-0.430227 -0.352031 0)
(-0.34631 -0.361741 0)
(-0.247099 -0.399106 0)
(-0.250088 -0.576134 0)
(-0.205895 -0.773401 0)
(-0.0526083 -0.876366 0)
(0.0419235 -0.965237 0)
(0.175588 -1.00611 0)
(0.463355 -0.966928 0)
(0.791364 -0.950583 0)
(1.145 -0.958494 0)
(1.51694 -0.939494 0)
(1.85982 -0.876053 0)
(2.19166 -0.750259 0)
(2.52006 -0.592006 0)
(2.80452 -0.476403 0)
(3.01781 -0.471051 0)
(3.17877 -0.63455 0)
(3.30303 -0.945367 0)
(3.40824 -1.28423 0)
(3.46604 -1.66642 0)
(3.43295 -2.19079 0)
(3.34961 -2.77747 0)
(0.24855 0.00227085 0)
(0.706157 -0.00332587 0)
(1.06928 -0.0242372 0)
(1.26715 -0.0565963 0)
(1.29921 -0.0821607 0)
(1.21226 -0.0933153 0)
(1.05709 -0.093983 0)
(0.93289 -0.0817466 0)
(0.798455 -0.103434 0)
(0.578013 -0.17812 0)
(0.252122 -0.245366 0)
(-0.0776118 -0.233022 0)
(-0.272745 -0.170841 0)
(-0.357279 -0.18411 0)
(-0.377003 -0.292041 0)
(-0.305956 -0.370637 0)
(-0.165478 -0.382463 0)
(-0.0807737 -0.45579 0)
(-0.0739768 -0.648743 0)
(0.026013 -0.818865 0)
(0.179036 -0.930344 0)
(0.276614 -1.02988 0)
(0.462956 -1.02774 0)
(0.747511 -0.954581 0)
(1.05392 -0.913274 0)
(1.40176 -0.896314 0)
(1.76481 -0.879164 0)
(2.12321 -0.825872 0)
(2.47604 -0.712502 0)
(2.79142 -0.573562 0)
(3.0383 -0.479177 0)
(3.21483 -0.494719 0)
(3.3433 -0.670091 0)
(3.44181 -0.973847 0)
(3.51231 -1.31217 0)
(3.53059 -1.73096 0)
(3.49826 -2.30833 0)
(3.45094 -2.9263 0)
(0.263346 0.00210441 0)
(0.780569 -0.00631626 0)
(1.20611 -0.03002 0)
(1.46522 -0.0698639 0)
(1.51922 -0.115232 0)
(1.43287 -0.143669 0)
(1.24938 -0.154891 0)
(1.04737 -0.140725 0)
(0.886608 -0.112992 0)
(0.704585 -0.138851 0)
(0.439911 -0.233054 0)
(0.10005 -0.313184 0)
(-0.169007 -0.284267 0)
(-0.276943 -0.201997 0)
(-0.303197 -0.215403 0)
(-0.261444 -0.320358 0)
(-0.119864 -0.388754 0)
(0.0453438 -0.41822 0)
(0.118904 -0.532158 0)
(0.162277 -0.726572 0)
(0.293959 -0.876699 0)
(0.419205 -1.00172 0)
(0.545112 -1.09058 0)
(0.777565 -1.05332 0)
(1.04263 -0.96007 0)
(1.32303 -0.884619 0)
(1.6466 -0.835699 0)
(2.00342 -0.806086 0)
(2.38204 -0.755279 0)
(2.73653 -0.66223 0)
(3.01891 -0.549987 0)
(3.2259 -0.47752 0)
(3.37537 -0.512982 0)
(3.47822 -0.700656 0)
(3.54848 -1.00097 0)
(3.58201 -1.34823 0)
(3.58554 -1.79718 0)
(3.57308 -2.40964 0)
(3.55991 -3.04531 0)
(0.285404 0.00136269 0)
(0.870201 -0.00923625 0)
(1.35736 -0.0373338 0)
(1.68528 -0.0790665 0)
(1.79337 -0.137668 0)
(1.72046 -0.193286 0)
(1.54273 -0.226416 0)
(1.2885 -0.235822 0)
(1.04815 -0.202193 0)
(0.838461 -0.160227 0)
(0.612641 -0.190882 0)
(0.323326 -0.305767 0)
(0.022514 -0.392454 0)
(-0.140402 -0.343332 0)
(-0.169282 -0.250786 0)
(-0.160353 -0.265328 0)
(-0.07217 -0.355357 0)
(0.109077 -0.413534 0)
(0.273278 -0.470335 0)
(0.353338 -0.618141 0)
(0.445289 -0.806124 0)
(0.575511 -0.953158 0)
(0.670308 -1.08336 0)
(0.838223 -1.13976 0)
(1.08998 -1.0827 0)
(1.332 -0.976348 0)
(1.58805 -0.864065 0)
(1.88643 -0.778591 0)
(2.24484 -0.722353 0)
(2.63088 -0.67186 0)
(2.96283 -0.60659 0)
(3.20099 -0.523502 0)
(3.37697 -0.469521 0)
(3.50865 -0.525635 0)
(3.59074 -0.73122 0)
(3.63096 -1.03992 0)
(3.64067 -1.39569 0)
(3.64152 -1.8573 0)
(3.64466 -2.48208 0)
(3.66539 -3.12713 0)
(0.317218 0.000211074 0)
(0.972047 -0.012541 0)
(1.5155 -0.0433947 0)
(1.89438 -0.085627 0)
(2.0694 -0.144055 0)
(2.03195 -0.219574 0)
(1.87098 -0.283583 0)
(1.62715 -0.324951 0)
(1.32795 -0.331197 0)
(1.05274 -0.279952 0)
(0.801026 -0.226356 0)
(0.548932 -0.263973 0)
(0.27152 -0.396554 0)
(0.060832 -0.479373 0)
(0.0142345 -0.413644 0)
(0.0353708 -0.324861 0)
(0.0651018 -0.3373 0)
(0.182193 -0.403137 0)
(0.367428 -0.454375 0)
(0.516787 -0.537856 0)
(0.619389 -0.70394 0)
(0.748858 -0.888068 0)
(0.850736 -1.0483 0)
(0.938567 -1.16418 0)
(1.13892 -1.17953 0)
(1.37796 -1.11324 0)
(1.60134 -0.993742 0)
(1.84341 -0.849529 0)
(2.13416 -0.724469 0)
(2.49141 -0.635144 0)
(2.85806 -0.585303 0)
(3.14862 -0.551588 0)
(3.34766 -0.495439 0)
(3.50676 -0.456438 0)
(3.62588 -0.53792 0)
(3.68687 -0.770491 0)
(3.69961 -1.09494 0)
(3.69733 -1.44863 0)
(3.69248 -1.90633 0)
(3.71551 -2.5265 0)
(3.78644 -3.17979 0)
(0.35571 -0.000796479 0)
(1.0838 -0.0154603 0)
(1.68386 -0.0481988 0)
(2.08365 -0.0920461 0)
(2.30857 -0.141513 0)
(2.31874 -0.218021 0)
(2.17535 -0.304792 0)
(1.95867 -0.377257 0)
(1.6728 -0.429287 0)
(1.35324 -0.433813 0)
(1.05913 -0.371411 0)
(0.7919 -0.311713 0)
(0.545226 -0.358791 0)
(0.321034 -0.501837 0)
(0.227293 -0.57064 0)
(0.273146 -0.499685 0)
(0.317907 -0.426501 0)
(0.364873 -0.432101 0)
(0.488377 -0.472355 0)
(0.650331 -0.518976 0)
(0.781595 -0.618998 0)
(0.906436 -0.785963 0)
(1.04091 -0.975768 0)
(1.11313 -1.1526 0)
(1.2233 -1.2354 0)
(1.43023 -1.21666 0)
(1.63922 -1.14477 0)
(1.85165 -1.00918 0)
(2.09946 -0.837611 0)
(2.39869 -0.675327 0)
(2.73771 -0.555923 0)
(3.05873 -0.50883 0)
(3.30246 -0.504141 0)
(3.47972 -0.46918 0)
(3.6334 -0.446928 0)
(3.73805 -0.561115 0)
(3.77154 -0.827653 0)
(3.76296 -1.16091 0)
(3.75039 -1.50449 0)
(3.75246 -1.94782 0)
(3.8158 -2.55667 0)
(3.95345 -3.21507 0)
(0.388374 -0.000484554 0)
(1.19094 -0.0154238 0)
(1.86412 -0.0507675 0)
(2.27941 -0.0998794 0)
(2.50533 -0.144529 0)
(2.56647 -0.202861 0)
(2.44002 -0.294189 0)
(2.22887 -0.385855 0)
(1.97704 -0.466667 0)
(1.67227 -0.530088 0)
(1.35852 -0.536437 0)
(1.07585 -0.471433 0)
(0.832344 -0.412766 0)
(0.626209 -0.471734 0)
(0.484206 -0.615229 0)
(0.503811 -0.665544 0)
(0.603962 -0.60427 0)
(0.661679 -0.5526 0)
(0.722404 -0.550334 0)
(0.830846 -0.570558 0)
(0.9586 -0.611354 0)
(1.07017 -0.712311 0)
(1.19621 -0.869665 0)
(1.3016 -1.07206 0)
(1.37004 -1.25045 0)
(1.51448 -1.29675 0)
(1.70557 -1.26052 0)
(1.89044 -1.18112 0)
(2.10421 -1.02543 0)
(2.3723 -0.828318 0)
(2.6777 -0.638528 0)
(2.97915 -0.499508 0)
(3.24341 -0.457156 0)
(3.44951 -0.473826 0)
(3.62154 -0.45329 0)
(3.77062 -0.454704 0)
(3.85003 -0.609816 0)
(3.84979 -0.905256 0)
(3.82846 -1.23453 0)
(3.82121 -1.56789 0)
(3.85948 -1.99415 0)
(3.97571 -2.58769 0)
(4.18188 -3.24003 0)
(0.404942 -6.50885e-05 0)
(1.26884 -0.0101561 0)
(2.03359 -0.0452459 0)
(2.50369 -0.104249 0)
(2.70536 -0.15894 0)
(2.779 -0.20005 0)
(2.68973 -0.271534 0)
(2.46905 -0.370407 0)
(2.21241 -0.462299 0)
(1.93786 -0.54931 0)
(1.63567 -0.622162 0)
(1.35689 -0.633609 0)
(1.12097 -0.574101 0)
(0.939569 -0.523086 0)
(0.796689 -0.596136 0)
(0.748836 -0.729608 0)
(0.854257 -0.765333 0)
(0.97766 -0.726055 0)
(1.05092 -0.696912 0)
(1.11427 -0.6926 0)
(1.19516 -0.698874 0)
(1.28879 -0.731399 0)
(1.3739 -0.820133 0)
(1.47035 -0.964995 0)
(1.53873 -1.1743 0)
(1.63258 -1.33417 0)
(1.7994 -1.35557 0)
(1.97375 -1.31691 0)
(2.15295 -1.22744 0)
(2.38158 -1.04871 0)
(2.66839 -0.826707 0)
(2.96183 -0.623382 0)
(3.21767 -0.47848 0)
(3.43415 -0.441875 0)
(3.61742 -0.470283 0)
(3.78715 -0.459567 0)
(3.91754 -0.493308 0)
(3.95661 -0.689486 0)
(3.93319 -0.99799 0)
(3.92233 -1.32183 0)
(3.95191 -1.64774 0)
(4.03988 -2.05772 0)
(4.2059 -2.62579 0)
(4.46379 -3.25996 0)
(0.40811 0.00022107 0)
(1.30569 -0.00364817 0)
(2.1531 -0.0294239 0)
(2.72831 -0.0915387 0)
(2.94761 -0.169924 0)
(2.98803 -0.220569 0)
(2.93544 -0.263304 0)
(2.72955 -0.349428 0)
(2.44767 -0.450269 0)
(2.15808 -0.539276 0)
(1.86952 -0.628505 0)
(1.59321 -0.705575 0)
(1.37484 -0.723452 0)
(1.21714 -0.674182 0)
(1.11681 -0.637671 0)
(1.04387 -0.723692 0)
(1.08595 -0.839447 0)
(1.23906 -0.870139 0)
(1.37401 -0.858042 0)
(1.46566 -0.852455 0)
(1.51673 -0.857231 0)
(1.56902 -0.852977 0)
(1.62493 -0.87563 0)
(1.67624 -0.946444 0)
(1.72611 -1.07962 0)
(1.77813 -1.27827 0)
(1.90243 -1.40844 0)
(2.0766 -1.41916 0)
(2.24902 -1.3837 0)
(2.44137 -1.28521 0)
(2.69272 -1.08018 0)
(2.98228 -0.840913 0)
(3.2442 -0.638878 0)
(3.46001 -0.497175 0)
(3.64781 -0.466013 0)
(3.8171 -0.49795 0)
(3.96788 -0.497223 0)
(4.05595 -0.564307 0)
(4.06173 -0.790661 0)
(4.05133 -1.105 0)
(4.08495 -1.42968 0)
(4.16558 -1.75103 0)
(4.29516 -2.14134 0)
(4.49571 -2.67343 0)
(0.407178 -8.754e-05 0)
(1.30934 0.000853877 0)
(2.20118 -0.0095011 0)
(2.88823 -0.0563688 0)
(3.20013 -0.14944 0)
(3.22362 -0.238741 0)
(3.16409 -0.283341 0)
(3.01169 -0.337536 0)
(2.73285 -0.437996 0)
(2.41081 -0.539437 0)
(2.09899 -0.623445 0)
(1.80966 -0.709796 0)
(1.58404 -0.783257 0)
(1.44219 -0.807233 0)
(1.38027 -0.768856 0)
(1.35325 -0.754106 0)
(1.34693 -0.846234 0)
(1.45752 -0.942312 0)
(1.62704 -0.976774 0)
(1.77722 -0.989733 0)
(1.8803 -1.01481 0)
(1.91318 -1.03741 0)
(1.93509 -1.02734 0)
(1.94723 -1.03945 0)
(1.9646 -1.09186 0)
(1.9795 -1.21364 0)
(2.03795 -1.3838 0)
(2.17893 -1.48379 0)
(2.35711 -1.49024 0)
(2.54282 -1.45808 0)
(2.75913 -1.34821 0)
(3.02985 -1.12056 0)
(3.30376 -0.879892 0)
(3.52548 -0.690719 0)
(3.71309 -0.551739 0)
(3.8834 -0.523911 0)
(4.03238 -0.556557 0)
(4.13654 -0.564348 0)
(4.18251 -0.657516 0)
(4.19785 -0.904122 0)
(4.24108 -1.22676 0)
(4.33293 -1.55789 0)
(4.4537 -1.87599 0)
(4.60985 -2.24199 0)
(0.409946 -0.000393326 0)
(1.29363 0.00159204 0)
(2.19059 0.00563628 0)
(2.93547 -0.0129631 0)
(3.38025 -0.0864659 0)
(3.4552 -0.209454 0)
(3.37051 -0.300283 0)
(3.25232 -0.34522 0)
(3.03714 -0.41953 0)
(2.72375 -0.536459 0)
(2.38201 -0.64073 0)
(2.06128 -0.719905 0)
(1.79586 -0.796078 0)
(1.63882 -0.859406 0)
(1.58174 -0.886435 0)
(1.60943 -0.860127 0)
(1.63366 -0.871033 0)
(1.68314 -0.959546 0)
(1.8268 -1.03867 0)
(1.9995 -1.07749 0)
(2.16961 -1.11232 0)
(2.27183 -1.17874 0)
(2.29068 -1.22496 0)
(2.27209 -1.21755 0)
(2.2471 -1.21638 0)
(2.24125 -1.25443 0)
(2.2477 -1.36128 0)
(2.32011 -1.49587 0)
(2.46984 -1.56952 0)
(2.65506 -1.57087 0)
(2.85796 -1.5374 0)
(3.10139 -1.41244 0)
(3.38023 -1.17505 0)
(3.62693 -0.950742 0)
(3.81192 -0.777371 0)
(3.97592 -0.635894 0)
(4.12344 -0.608569 0)
(4.23058 -0.639248 0)
(4.28938 -0.65326 0)
(4.33309 -0.765528 0)
(4.40125 -1.02637 0)
(4.51144 -1.35835 0)
(4.64721 -1.70058 0)
(4.79377 -2.01435 0)
(4.96302 -2.35437 0)
(0.41266 -0.000264838 0)
(1.27524 0.00154402 0)
(2.14643 0.0113691 0)
(2.89369 0.0172541 0)
(3.42327 -0.0102008 0)
(3.61719 -0.117987 0)
(3.53959 -0.260587 0)
(3.41059 -0.347364 0)
(3.26266 -0.40085 0)
(3.02484 -0.501112 0)
(2.70876 -0.639952 0)
(2.37228 -0.752384 0)
(2.06403 -0.828325 0)
(1.85312 -0.88631 0)
(1.77074 -0.936708 0)
(1.79916 -0.96204 0)
(1.88886 -0.953083 0)
(1.94513 -0.986819 0)
(2.02815 -1.06569 0)
(2.1704 -1.12965 0)
(2.34815 -1.16429 0)
(2.53285 -1.2222 0)
(2.62814 -1.33677 0)
(2.63002 -1.41489 0)
(2.57298 -1.4171 0)
(2.53171 -1.40102 0)
(2.5177 -1.43013 0)
(2.53526 -1.51825 0)
(2.62648 -1.61938 0)
(2.78666 -1.6702 0)
(2.977 -1.66481 0)
(3.19601 -1.62036 0)
(3.46124 -1.48075 0)
(3.73559 -1.24969 0)
(3.95009 -1.0552 0)
(4.10375 -0.894665 0)
(4.238 -0.746703 0)
(4.34296 -0.713433 0)
(4.40975 -0.740407 0)
(4.46518 -0.760675 0)
(4.54592 -0.885266 0)
(4.6788 -1.15091 0)
(4.83771 -1.4936 0)
(4.99909 -1.84767 0)
(5.16334 -2.15677 0)
(0.404358 0.000871571 0)
(1.26026 0.00329353 0)
(2.10211 0.00943399 0)
(2.83061 0.0254571 0)
(3.3644 0.0338145 0)
(3.67 -0.00869298 0)
(3.6584 -0.149937 0)
(3.50646 -0.297104 0)
(3.36305 -0.378192 0)
(3.20795 -0.444469 0)
(2.97834 -0.574075 0)
(2.6888 -0.740674 0)
(2.38407 -0.868484 0)
(2.11994 -0.941277 0)
(1.98447 -0.977394 0)
(1.97684 -1.01318 0)
(2.07911 -1.0357 0)
(2.19894 -1.05077 0)
(2.2743 -1.10118 0)
(2.36059 -1.1703 0)
(2.48459 -1.21496 0)
(2.67154 -1.23492 0)
(2.85726 -1.31923 0)
(2.94174 -1.48509 0)
(2.9197 -1.6048 0)
(2.85172 -1.6175 0)
(2.81493 -1.59186 0)
(2.80502 -1.61478 0)
(2.84353 -1.68192 0)
(2.96091 -1.75416 0)
(3.13161 -1.78979 0)
(3.32442 -1.77403 0)
(3.55854 -1.7098 0)
(3.83325 -1.55977 0)
(4.08884 -1.34896 0)
(4.26901 -1.18896 0)
(4.3901 -1.03871 0)
(4.48157 -0.878574 0)
(4.54623 -0.837155 0)
(4.61171 -0.860425 0)
(4.69925 -0.885395 0)
(4.82854 -1.01003 0)
(5.00679 -1.27289 0)
(5.19088 -1.62677 0)
(5.36932 -1.99042 0)
(5.5487 -2.29677 0)
(0.383757 0.00218069 0)
(1.23993 0.00790257 0)
(2.0834 0.00709582 0)
(2.79945 0.0147519 0)
(3.32019 0.0340721 0)
(3.65204 0.0438826 0)
(3.74776 -0.0222374 0)
(3.59779 -0.184903 0)
(3.40803 -0.324243 0)
(3.25754 -0.396549 0)
(3.1084 -0.474604 0)
(2.90619 -0.633818 0)
(2.66715 -0.830769 0)
(2.41806 -0.980131 0)
(2.23094 -1.04833 0)
(2.17528 -1.06457 0)
(2.24095 -1.08371 0)
(2.39289 -1.10897 0)
(2.52407 -1.15202 0)
(2.60361 -1.21673 0)
(2.66886 -1.27838 0)
(2.78085 -1.29431 0)
(2.97374 -1.2951 0)
(3.14321 -1.40775 0)
(3.20819 -1.62668 0)
(3.17539 -1.79082 0)
(3.12887 -1.81438 0)
(3.10525 -1.78977 0)
(3.10744 -1.80563 0)
(3.17491 -1.84908 0)
(3.31991 -1.89902 0)
(3.49777 -1.92798 0)
(3.69876 -1.89694 0)
(3.94384 -1.81053 0)
(4.2085 -1.65763 0)
(4.43171 -1.47315 0)
(4.57285 -1.34725 0)
(4.65467 -1.19861 0)
(4.71316 -1.02781 0)
(4.77464 -0.980639 0)
(4.86904 -0.99804 0)
(4.99649 -1.02025 0)
(5.16146 -1.13541 0)
(5.36061 -1.39297 0)
(5.55701 -1.75519 0)
(5.74963 -2.12499 0)
(5.94535 -2.43027 0)
(0.359966 0.00261765 0)
(1.20941 0.0111664 0)
(2.08604 0.0114996 0)
(2.8139 0.00197333 0)
(3.34706 0.00832316 0)
(3.66959 0.027836 0)
(3.83144 0.0328955 0)
(3.75434 -0.0621135 0)
(3.52059 -0.232256 0)
(3.29713 -0.355392 0)
(3.13441 -0.41242 0)
(2.99283 -0.496225 0)
(2.82832 -0.67942 0)
(2.65118 -0.905994 0)
(2.47773 -1.07742 0)
(2.38531 -1.14084 0)
(2.40581 -1.14089 0)
(2.53604 -1.14388 0)
(2.71441 -1.18117 0)
(2.85048 -1.25366 0)
(2.91514 -1.33743 0)
(2.95563 -1.39083 0)
(3.07378 -1.36856 0)
(3.25933 -1.35452 0)
(3.39728 -1.49825 0)
(3.44077 -1.76702 0)
(3.42509 -1.96777 0)
(3.40962 -2.00781 0)
(3.40019 -1.99165 0)