/*--------------------------------*- C++ -*----------------------------------*\
| =========                 |                                                 |
| \\      /  F ield         | OpenFOAM: The Open Source CFD Toolbox           |
|  \\    /   O peration     | Version:  5.x                                   |
|   \\  /    A nd           | Web:      www.OpenFOAM.org                      |
|    \\/     M anipulation  |                                                 |
\*---------------------------------------------------------------------------*/
FoamFile
{
    version     2.0;
    format      ascii;
    class       volVectorField;
    location    "0.5";
    object      Urom;
}
// * * * * * * * * * * * * * * * * * * * * * * * * * * * * * * * * * * * * * //

dimensions      [0 1 -1 0 0 0 0];

internalField   nonuniform List<vector> 
17720
(
(0.9793 0.00296166 0)
(0.916486 0.00310601 0)
(2.45361 0.028259 0)
(0.850486 0.00337304 0)
(2.32329 0.0293707 0)
(3.61686 0.064775 0)
(0.782275 0.00366555 0)
(2.18828 0.0304618 0)
(3.46688 0.066961 0)
(4.52798 0.102241 0)
(0.715096 0.00371706 0)
(2.0524 0.0306118 0)
(3.31155 0.0687102 0)
(4.38999 0.105619 0)
(5.23208 0.136175 0)
(0.652298 0.00349038 0)
(1.92247 0.0291429 0)
(3.15449 0.0679309 0)
(4.24704 0.108914 0)
(5.11288 0.139279 0)
(5.79611 0.169125 0)
(0.59631 0.00313808 0)
(1.80421 0.026413 0)
(3.00465 0.0637253 0)
(4.09688 0.107768 0)
(4.99639 0.144768 0)
(5.68031 0.168915 0)
(6.28125 0.204909 0)
(0.548799 0.0026927 0)
(1.70048 0.0230123 0)
(2.86989 0.0572165 0)
(3.94778 0.100644 0)
(4.87096 0.14588 0)
(5.57848 0.174117 0)
(6.15685 0.200697 0)
(6.69977 0.240487 0)
(0.510232 0.00222683 0)
(1.61263 0.0191884 0)
(2.7533 0.0497267 0)
(3.81222 0.0894487 0)
(4.73634 0.138127 0)
(5.47764 0.178118 0)
(6.04649 0.202202 0)
(6.58305 0.237815 0)
(7.02345 0.265417 0)
(0.479669 0.00181929 0)
(1.54097 0.0153604 0)
(2.65448 0.0415625 0)
(3.69729 0.0771713 0)
(4.60572 0.122683 0)
(5.3673 0.172506 0)
(5.95046 0.205602 0)
(6.45862 0.23542 0)
(6.94892 0.27306 0)
(7.24561 0.275168 0)
(0.456888 0.00118947 0)
(1.48458 0.0117522 0)
(2.57208 0.0333253 0)
(3.60255 0.0646549 0)
(4.49254 0.10438 0)
(5.25321 0.155881 0)
(5.85752 0.201095 0)
(6.34843 0.234293 0)
(6.84058 0.273832 0)
(7.22263 0.293198 0)
(7.41302 0.278377 0)
(0.443513 0.000507124 0)
(1.44295 0.00796959 0)
(2.50499 0.0255882 0)
(3.52355 0.0526284 0)
(4.40109 0.0863464 0)
(5.14759 0.13304 0)
(5.76524 0.184476 0)
(6.25453 0.226981 0)
(6.72201 0.268866 0)
(7.17112 0.305852 0)
(7.41028 0.294949 0)
(7.59374 0.288555 0)
(0.439614 -0.000148281 0)
(1.41675 0.00402402 0)
(2.45275 0.0181559 0)
(3.45593 0.0416928 0)
(4.32776 0.0707271 0)
(5.05629 0.109193 0)
(5.67885 0.160183 0)
(6.17165 0.208019 0)
(6.6151 0.255868 0)
(7.08293 0.306125 0)
(7.41893 0.317283 0)
(7.57012 0.290297 0)
(7.81902 0.308663 0)
(0.44219 -0.000601933 0)
(1.40394 0.000712108 0)
(2.41501 0.0105982 0)
(3.39847 0.0311373 0)
(4.26509 0.0578085 0)
(4.97996 0.0889727 0)
(5.59781 0.133904 0)
(6.10015 0.181905 0)
(6.52307 0.231975 0)
(6.97544 0.29123 0)
(7.39869 0.332273 0)
(7.59648 0.307939 0)
(7.76819 0.295307 0)
(8.05781 0.324231 0)
(0.446414 -0.000734542 0)
(1.39906 -0.000967567 0)
(2.38903 0.00466045 0)
(3.35096 0.0204993 0)
(4.20928 0.0456167 0)
(4.91573 0.0735784 0)
(5.51999 0.110688 0)
(6.03664 0.155764 0)
(6.44599 0.2013 0)
(6.86588 0.262663 0)
(7.32977 0.327807 0)
(7.63633 0.334829 0)
(7.76308 0.294208 0)
(8.021 0.31272 0)
(8.25461 0.316339 0)
(0.450216 -0.000652033 0)
(1.39505 -0.00120971 0)
(2.3696 0.00199583 0)
(3.31174 0.0122039 0)
(4.16078 0.0332678 0)
(4.86121 0.0594659 0)
(5.44837 0.0918579 0)
(5.97276 0.133139 0)
(6.3869 0.172306 0)
(6.76566 0.225704 0)
(7.22076 0.301978 0)
(7.63666 0.3511 0)
(7.80977 0.317237 0)
(7.97752 0.295241 0)
(8.28045 0.326035 0)
(8.38884 0.282566 0)
(0.454684 -0.0009033 0)
(1.38849 -0.000722108 0)
(2.35067 0.00236946 0)
(3.27839 0.00824659 0)
(4.11869 0.0230126 0)
(4.81875 0.0448033 0)
(5.38857 0.0735315 0)
(5.90752 0.112755 0)
(6.34287 0.149249 0)
(6.69 0.188016 0)
(7.09854 0.259991 0)
(7.57083 0.341553 0)
(7.86465 0.349557 0)
(7.97799 0.298865 0)
(8.24501 0.313433 0)
(8.47888 0.314413 0)
(8.49269 0.243739 0)
(0.462208 -0.00110926 0)
(1.38049 -0.00144583 0)
(2.32814 0.00400678 0)
(3.24791 0.00918454 0)
(4.08211 0.0175097 0)
(4.78984 0.0322535 0)
(5.34892 0.0529517 0)
(5.84894 0.0895663 0)
(6.30636 0.129268 0)
(6.65185 0.156943 0)
(6.99815 0.209467 0)
(7.45756 0.301946 0)
(7.87349 0.364036 0)
(8.03262 0.327231 0)
(8.19757 0.29944 0)
(8.50747 0.328728 0)
(8.59237 0.274872 0)
(8.60385 0.223289 0)
(0.473992 -0.00173423 0)
(1.37505 -0.00273826 0)
(2.30085 0.00354948 0)
(3.21668 0.0119494 0)
(4.04965 0.0176971 0)
(4.77127 0.0258263 0)
(5.33653 0.0347778 0)
(5.80971 0.0601468 0)
(6.27333 0.103961 0)
(6.64802 0.133242 0)
(6.94916 0.161509 0)
(7.34699 0.238821 0)
(7.81973 0.338534 0)
(8.10292 0.356276 0)
(8.20288 0.30345 0)
(8.47005 0.31876 0)
(8.69231 0.315311 0)
(8.65969 0.228556 0)
(8.71699 0.22202 0)
(0.488612 -0.00180442 0)
(1.37523 -0.0046616 0)
(2.27168 0.00116792 0)
(3.17999 0.0130315 0)
(4.01912 0.0206712 0)
(4.75584 0.0256747 0)
(5.34831 0.0257972 0)
(5.8037 0.0314952 0)
(6.2483 0.0674229 0)
(6.66066 0.107883 0)
(6.95925 0.124593 0)
(7.2848 0.169267 0)
(7.73882 0.270389 0)
(8.14144 0.349886 0)
(8.28149 0.321789 0)
(8.43201 0.297115 0)
(8.73354 0.331661 0)
(8.77982 0.266531 0)
(8.73061 0.19752 0)
(8.80835 0.223933 0)
(0.502551 -0.00154507 0)
(1.38075 -0.00504528 0)
(2.24578 -0.00227389 0)
(3.13474 0.0112461 0)
(3.98476 0.0241275 0)
(4.73655 0.0292448 0)
(5.36937 0.0270054 0)
(5.8352 0.0150067 0)
(6.24519 0.0269859 0)
(6.67373 0.0695149 0)
(7.0104 0.0949125 0)
(7.28819 0.111575 0)
(7.68102 0.181819 0)
(8.13915 0.288955 0)
(8.39673 0.322943 0)
(8.46987 0.280508 0)
(8.71869 0.306445 0)
(8.9141 0.306441 0)
(8.82025 0.202163 0)
(8.81673 0.181261 0)
(8.87825 0.216503 0)
(0.510885 -0.000920753 0)
(1.38699 -0.0036483 0)
(2.22717 -0.00424839 0)
(3.08483 0.00643196 0)
(3.93844 0.0252886 0)
(4.70859 0.0347169 0)
(5.38025 0.0348525 0)
(5.8905 0.0158799 0)
(6.27777 -0.00110471 0)
(6.68767 0.0221262 0)
(7.07227 0.0581775 0)
(7.34871 0.0689342 0)
(7.67246 0.102383 0)
(8.12202 0.193148 0)
(8.49801 0.275959 0)
(8.60395 0.263145 0)
(8.72007 0.253269 0)
(8.99759 0.303447 0)
(8.99628 0.233804 0)
(8.87477 0.145308 0)
(8.90925 0.164774 0)
(8.94526 0.195809 0)
(0.509931 0.000152959 0)
(1.38757 -0.000116772 0)
(2.21571 -0.00289671 0)
(3.04064 0.0018322 0)
(3.87975 0.0210016 0)
(4.66762 0.0392001 0)
(5.36844 0.0445475 0)
(5.94216 0.0303508 0)
(6.34419 -0.00557054 0)
(6.71816 -0.0163978 0)
(7.12406 0.0115444 0)
(7.44177 0.0297357 0)
(7.71626 0.0411481 0)
(8.11674 0.0992409 0)
(8.56124 0.189059 0)
(8.78578 0.221474 0)
(8.81671 0.193373 0)
(9.02776 0.240189 0)
(9.19376 0.254193 0)
(9.03327 0.135121 0)
(8.96515 0.0999628 0)
(9.00622 0.135869 0)
(9.02352 0.161696 0)
(0.500867 0.000883935 0)
(1.37914 0.00341948 0)
(2.20849 0.00137968 0)
(3.0112 -3.78925e-06 0)
(3.82239 0.0136805 0)
(4.61457 0.0369153 0)
(5.33479 0.0521065 0)
(5.9647 0.0490856 0)
(6.4223 0.012415 0)
(6.77646 -0.0294624 0)
(7.16851 -0.030869 0)
(7.53723 -0.0126999 0)
(7.80655 -0.0094555 0)
(8.13877 0.0212298 0)
(8.59221 0.0961918 0)
(8.94622 0.153264 0)
(9.01585 0.133286 0)
(9.08251 0.137836 0)
(9.32879 0.214551 0)
(9.28677 0.148821 0)
(9.08822 0.0393303 0)
(9.08368 0.0560952 0)
(9.11074 0.090385 0)
(9.11519 0.114287 0)
(0.489251 0.00148921 0)
(1.36599 0.00517457 0)
(2.20498 0.00519207 0)
(2.99969 0.000911257 0)
(3.78494 0.00548395 0)
(4.56327 0.0264363 0)
(5.29118 0.0505228 0)
(5.95356 0.06278 0)
(6.48276 0.0410895 0)
(6.85462 -0.0134079 0)
(7.2205 -0.0504108 0)
(7.61638 -0.0509603 0)
(7.92645 -0.0530679 0)
(8.20128 -0.047304 0)
(8.61105 0.0106847 0)
(9.04978 0.078738 0)
(9.24879 0.0771694 0)
(9.2367 0.0357903 0)
(9.40159 0.100874 0)
(9.54355 0.141826 0)
(9.32147 0.011029 0)
(9.18903 -0.0398067 0)
(9.21612 0.00316085 0)
(9.22201 0.0292328 0)
(9.21657 0.0551205 0)
(0.48163 0.00182519 0)
(1.3589 0.00412489 0)
(2.2089 0.00580618 0)
(3.00703 0.00176487 0)
(3.77534 8.33089e-05 0)
(4.53533 0.0107605 0)
(5.25634 0.0348382 0)
(5.9272 0.060979 0)
(6.51267 0.0640627 0)
(6.93324 0.019949 0)
(7.2854 -0.0389255 0)
(7.68052 -0.0704334 0)
(8.04604 -0.0845444 0)
(8.31332 -0.103119 0)
(8.64466 -0.0750856 0)
(9.10153 0.00154144 0)
(9.44252 0.0299845 0)
(9.48121 -0.0319144 0)
(9.49827 -0.0441583 0)
(9.71304 0.0583418 0)
(9.63624 0.00941291 0)
(9.36504 -0.1215 0)
(9.32815 -0.106368 0)
(9.35057 -0.0635521 0)
(9.33498 -0.0444056 0)
(9.32098 -0.0135092 0)
(0.48367 0.00141976 0)
(1.3692 0.000524021 0)
(2.22541 0.000584696 0)
(3.03407 -0.00122586 0)
(3.79317 -0.00522717 0)
(4.53953 -0.00223513 0)
(5.24902 0.0109889 0)
(5.91025 0.0380022 0)
(6.52417 0.0645158 0)
(7.0013 0.0492618 0)
(7.359 -0.00718756 0)
(7.73989 -0.0607882 0)
(8.14257 -0.0963119 0)
(8.45662 -0.134125 0)
(8.72569 -0.152141 0)
(9.12874 -0.0917546 0)
(9.5657 -0.0218648 0)
(9.74554 -0.0596587 0)
(9.69073 -0.150414 0)
(9.80826 -0.097594 0)
(9.92367 -0.0277082 0)
(9.64643 -0.157543 0)
(9.45976 -0.224671 0)
(9.48084 -0.172552 0)
(9.47712 -0.143632 0)
(9.44488 -0.125009 0)
(9.41769 -0.0914295 0)
(0.496706 0.000773061 0)
(1.40491 -0.0047503 0)
(2.25816 -0.00933054 0)
(3.07479 -0.0094173 0)
(3.83344 -0.0132202 0)
(4.56988 -0.0137658 0)
(5.27542 -0.00959156 0)
(5.92036 0.00473956 0)
(6.53573 0.0364396 0)
(7.06276 0.0531885 0)
(7.44108 0.020602 0)
(7.80228 -0.0329875 0)
(8.21603 -0.0827113 0)
(8.59186 -0.135274 0)
(8.86358 -0.194254 0)
(9.17632 -0.191089 0)
(9.62368 -0.105238 0)
(9.96038 -0.0772796 0)
(9.96918 -0.184664 0)
(9.92854 -0.24899 0)
(10.0998 -0.147979 0)
(9.98586 -0.174142 0)
(9.6596 -0.312357 0)
(9.60059 -0.300727 0)
(9.62393 -0.247644 0)
(9.58833 -0.23307 0)
(9.54623 -0.20806 0)
(9.50169 -0.176543 0)
(0.516028 0.000363591 0)
(1.46397 -0.0088166 0)
(2.31257 -0.0213101 0)
(3.11693 -0.0218902 0)
(3.88068 -0.0217275 0)
(4.61155 -0.0248507 0)
(5.32265 -0.0244078 0)
(5.96284 -0.0232844 0)
(6.5604 -0.00491079 0)
(7.12089 0.0255285 0)
(7.53709 0.0237584 0)
(7.87668 -0.0121189 0)
(8.27809 -0.055723 0)
(8.69743 -0.111948 0)
(9.02372 -0.190816 0)
(9.28407 -0.254737 0)
(9.65548 -0.216967 0)
(10.0869 -0.130351 0)
(10.259 -0.175223 0)
(10.1528 -0.321603 0)
(10.1997 -0.313951 0)
(10.2686 -0.237641 0)
(9.95454 -0.352562 0)
(9.73471 -0.425139 0)
(9.75323 -0.367832 0)
(9.74242 -0.334066 0)
(9.68199 -0.324542 0)
(9.63038 -0.292517 0)
(9.58068 -0.258584 0)
(0.53457 0.000532229 0)
(1.5334 -0.0098291 0)
(2.39231 -0.0303756 0)
(3.15892 -0.0384477 0)
(3.91236 -0.0309953 0)
(4.64325 -0.030184 0)
(5.36407 -0.0326691 0)
(6.02189 -0.0387089 0)
(6.6042 -0.0394434 0)
(7.17319 -0.0171776 0)
(7.64267 -0.0015745 0)
(7.97548 -0.0167156 0)
(8.34093 -0.0408677 0)
(8.77632 -0.0792454 0)
(9.16591 -0.154928 0)
(9.44258 -0.25773 0)
(9.72254 -0.305707 0)
(10.1335 -0.234035 0)
(10.4741 -0.183717 0)
(10.4605 -0.310998 0)
(10.3391 -0.436912 0)
(10.4323 -0.368277 0)
(10.2812 -0.384036 0)
(9.93816 -0.512241 0)
(9.86477 -0.502138 0)
(9.8854 -0.441641 0)
(9.83016 -0.427984 0)
(9.75615 -0.412075 0)
(9.6948 -0.375174 0)
(9.66665 -0.324152 0)
(0.549939 0.000644907 0)
(1.5986 -0.008337 0)
(2.49128 -0.0322997 0)
(3.21877 -0.0545576 0)
(3.92266 -0.0479017 0)
(4.64547 -0.0323709 0)
(5.37241 -0.0297387 0)
(6.06465 -0.0380578 0)
(6.65702 -0.0543094 0)
(7.2169 -0.0526874 0)
(7.7383 -0.0379075 0)
(8.10147 -0.0447778 0)
(8.41934 -0.055879 0)
(8.83733 -0.0639563 0)
(9.27446 -0.109957 0)
(9.60766 -0.213017 0)
(9.85241 -0.3255 0)
(10.1649 -0.340562 0)
(10.5698 -0.252982 0)
(10.7509 -0.276003 0)
(10.5874 -0.460925 0)
(10.5338 -0.512012 0)
(10.5372 -0.455956 0)
(10.2207 -0.557258 0)
(9.9978 -0.626529 0)
(10.0054 -0.568003 0)
(9.98048 -0.528045 0)
(9.88984 -0.522076 0)
(9.80841 -0.494369 0)
(9.75121 -0.447699 0)
(9.76566 -0.368725 0)
(0.566038 0.000635875 0)
(1.65605 -0.00744677 0)
(2.59416 -0.0285779 0)
(3.31346 -0.0618723 0)
(3.94202 -0.0720183 0)
(4.61907 -0.0466139 0)
(5.33728 -0.022963 0)
(6.05926 -0.020922 0)
(6.69221 -0.0431163 0)
(7.24845 -0.0649042 0)
(7.79994 -0.0639091 0)
(8.23323 -0.0732421 0)
(8.52837 -0.0939136 0)
(8.892 -0.0849622 0)
(9.34681 -0.0844756 0)
(9.74599 -0.152437 0)
(10.0144 -0.280618 0)
(10.2468 -0.383167 0)
(10.5843 -0.357511 0)
(10.9205 -0.287588 0)
(10.8984 -0.406334 0)
(10.6832 -0.588054 0)
(10.6863 -0.568643 0)
(10.5145 -0.593821 0)
(10.197 -0.71122 0)
(10.1151 -0.706009 0)
(10.119 -0.642231 0)
(10.0363 -0.624636 0)
(9.92732 -0.6113 0)
(9.8458 -0.570534 0)
(9.8203 -0.502291 0)
(9.87885 -0.401061 0)
(0.588363 0.000198683 0)
(1.71485 -0.00914218 0)
(2.69093 -0.0264283 0)
(3.43689 -0.0596111 0)
(4.01021 -0.0912254 0)
(4.60064 -0.0792841 0)
(5.27661 -0.0348874 0)
(5.99962 -0.00275676 0)
(6.6816 -0.00919507 0)
(7.25802 -0.0453186 0)
(7.8176 -0.0664029 0)
(8.3286 -0.0809374 0)
(8.66237 -0.120726 0)
(8.95976 -0.134363 0)
(9.38749 -0.101535 0)
(9.83967 -0.108716 0)
(10.1679 -0.206897 0)
(10.3793 -0.347486 0)
(10.6105 -0.42148 0)
(10.9501 -0.361284 0)
(11.144 -0.352243 0)
(10.9347 -0.555653 0)
(10.7846 -0.668995 0)
(10.7423 -0.651393 0)
(10.4546 -0.754028 0)
(10.2497 -0.824794 0)
(10.2377 -0.775045 0)
(10.1877 -0.731876 0)
(10.0615 -0.723992 0)
(9.95084 -0.694274 0)
(9.88975 -0.635883 0)
(9.91859 -0.539192 0)
(10.0046 -0.436111 0)
(0.618916 -0.000311755 0)
(1.78631 -0.0125791 0)
(2.78628 -0.0302359 0)
(3.56947 -0.0566474 0)
(4.13604 -0.0977829 0)
(4.63852 -0.116092 0)
(5.23075 -0.0778166 0)
(5.9153 -0.0138965 0)
(6.62027 0.0225276 0)
(7.23481 0.00186516 0)
(7.79414 -0.0384281 0)
(8.35762 -0.0627401 0)
(8.78186 -0.10997 0)
(9.05652 -0.168074 0)
(9.41134 -0.156001 0)
(9.88056 -0.109374 0)
(10.2839 -0.14126 0)
(10.526 -0.268373 0)
(10.6951 -0.403572 0)
(10.9297 -0.434985 0)
(11.2288 -0.364903 0)
(11.2167 -0.457334 0)
(10.9343 -0.685603 0)
(10.8782 -0.724684 0)
(10.7153 -0.777702 0)
(10.4373 -0.897973 0)
(10.3454 -0.906517 0)
(10.3245 -0.850369 0)
(10.2106 -0.832815 0)
(10.0684 -0.817846 0)
(9.97533 -0.76848 0)
(9.96368 -0.684291 0)
(10.0456 -0.567022 0)
(10.142 -0.480196 0)
(0.655669 -0.000663209 0)
(1.87403 -0.0160957 0)
(2.89189 -0.0380392 0)
(3.69851 -0.0604675 0)
(4.29453 -0.0962803 0)
(4.75357 -0.13833 0)
(5.24354 -0.135376 0)
(5.84953 -0.0691315 0)
(6.53358 0.0131068 0)
(7.18211 0.0452974 0)
(7.74356 0.0153766 0)
(8.31799 -0.0203619 0)
(8.83955 -0.0637482 0)
(9.16647 -0.147399 0)
(9.44783 -0.199922 0)
(9.87308 -0.157264 0)
(10.3391 -0.115354 0)
(10.6554 -0.184204 0)
(10.8171 -0.329072 0)
(10.9582 -0.44172 0)
(11.1961 -0.425948 0)
(11.3867 -0.391701 0)
(11.177 -0.592416 0)
(10.9734 -0.768975 0)
(10.9198 -0.801335 0)
(10.6679 -0.924279 0)
(10.4727 -1.00736 0)
(10.4322 -0.974013 0)
(10.3567 -0.937367 0)
(10.1994 -0.934071 0)
(10.0725 -0.899587 0)
(10.0226 -0.827509 0)
(10.0754 -0.714474 0)
(10.1872 -0.595072 0)
(10.3013 -0.522228 0)
(0.695672 -0.00105913 0)
(1.97206 -0.0180666 0)
(3.01198 -0.0453798 0)
(3.82419 -0.0702609 0)
(4.45092 -0.0976262 0)
(4.92228 -0.142151 0)
(5.34005 -0.177956 0)
(5.84151 -0.148688 0)
(6.45856 -0.0540031 0)
(7.11182 0.0395082 0)
(7.68928 0.0634776 0)
(8.23979 0.0367995 0)
(8.81425 0.00180391 0)
(9.24336 -0.0764258 0)
(9.51221 -0.180848 0)
(9.84875 -0.207132 0)
(10.3206 -0.142422 0)
(10.7339 -0.126585 0)
(10.9462 -0.235828 0)
(11.0469 -0.382912 0)
(11.1756 -0.45836 0)
(11.3981 -0.40956 0)
(11.4156 -0.464893 0)
(11.1285 -0.720413 0)
(11.0439 -0.825633 0)
(10.8995 -0.917369 0)
(10.6426 -1.05724 0)
(10.5269 -1.08534 0)
(10.4755 -1.04156 0)
(10.3367 -1.03288 0)
(10.1757 -1.02335 0)
(10.0944 -0.964351 0)
(10.1092 -0.866225 0)
(10.2129 -0.73349 0)
(10.3387 -0.624828 0)
(10.509 -0.543327 0)
(0.736007 -0.00150844 0)
(2.07133 -0.0186117 0)
(3.13927 -0.048522 0)
(3.94787 -0.0789828 0)
(4.58482 -0.103753 0)
(5.09304 -0.138829 0)
(5.5023 -0.190744 0)
(5.91497 -0.21366 0)
(6.43272 -0.154986 0)
(7.04411 -0.0358816 0)
(7.63635 0.0599962 0)
(8.16964 0.082164 0)
(8.73202 0.0661876 0)
(9.25176 0.015508 0)
(9.57748 -0.0982532 0)
(9.84844 -0.197825 0)
(10.2508 -0.188981 0)
(10.7256 -0.119468 0)
(11.0475 -0.14898 0)
(11.1644 -0.292002 0)
(11.2286 -0.426294 0)
(11.359 -0.456095 0)
(11.5238 -0.413957 0)
(11.3664 -0.583605 0)
(11.1434 -0.811328 0)
(11.0797 -0.89843 0)
(10.8463 -1.05118 0)
(10.6409 -1.15862 0)
(10.5646 -1.14568 0)
(10.4643 -1.11871 0)
(10.288 -1.12672 0)
(10.169 -1.09306 0)
(10.155 -1.00983 0)
(10.2326 -0.887891 0)
(10.3639 -0.750991 0)
(10.521 -0.648966 0)
(10.7924 -0.526561 0)
(0.773808 -0.00164887 0)
(2.16348 -0.0179936 0)
(3.26197 -0.0470492 0)
(4.06462 -0.0810692 0)
(4.69011 -0.108243 0)
(5.22331 -0.134865 0)
(5.67213 -0.181111 0)
(6.05606 -0.237801 0)
(6.47936 -0.242566 0)
(7.01017 -0.154396 0)
(7.586 -0.0199335 0)
(8.11911 0.0758531 0)
(8.64816 0.106485 0)
(9.19869 0.0949332 0)
(9.61265 0.0133952 0)
(9.87203 -0.117666 0)
(10.1872 -0.190296 0)
(10.6342 -0.149924 0)
(11.0661 -0.0985973 0)
(11.2781 -0.184623 0)
(11.327 -0.34743 0)
(11.3774 -0.456763 0)
(11.5181 -0.446191 0)
(11.5747 -0.467403 0)
(11.3178 -0.71493 0)
(11.1905 -0.875784 0)
(11.0472 -1.00281 0)
(10.7903 -1.17199 0)
(10.6464 -1.22974 0)
(10.5664 -1.2045 0)
(10.4108 -1.20684 0)
(10.2502 -1.20692 0)
(10.2054 -1.14248 0)
(10.2589 -1.03827 0)
(10.3808 -0.901823 0)
(10.5392 -0.770154 0)
(10.7674 -0.651864 0)
(11.1328 -0.471705 0)
(0.807164 -0.00161478 0)
(2.24224 -0.0160433 0)
(3.37028 -0.0421008 0)
(4.16859 -0.0762863 0)
(4.76673 -0.105626 0)
(5.29629 -0.128016 0)
(5.78949 -0.160482 0)
(6.20893 -0.221446 0)
(6.58815 -0.278723 0)
(7.03138 -0.261769 0)
(7.55656 -0.150499 0)
(8.07896 -0.0082931 0)
(8.58725 0.0936053 0)
(9.12367 0.13522 0)
(9.60813 0.110913 0)
(9.90643 -0.00114466 0)
(10.1558 -0.122611 0)
(10.5221 -0.157688 0)
(10.9788 -0.0981529 0)
(11.3296 -0.0887043 0)
(11.4368 -0.230422 0)
(11.449 -0.396261 0)
(11.5107 -0.471927 0)
(11.6577 -0.447767 0)
(11.5619 -0.576608 0)
(11.3023 -0.822438 0)
(11.1964 -0.944784 0)
(10.9647 -1.12098 0)
(10.7447 -1.26274 0)
(10.643 -1.28221 0)
(10.5276 -1.27471 0)
(10.3517 -1.29651 0)
(10.2602 -1.26671 0)
(10.2905 -1.17556 0)
(10.3955 -1.05502 0)
(10.5548 -0.914458 0)
(10.7647 -0.781742 0)
(11.0729 -0.623239 0)
(11.4774 -0.398765 0)
(0.836214 -0.00160749 0)
(2.30479 -0.013573 0)
(3.45699 -0.0346109 0)
(4.25848 -0.0664115 0)
(4.82253 -0.0972196 0)
(5.31826 -0.11664 0)
(5.8256 -0.134989 0)
(6.30633 -0.179387 0)
(6.70933 -0.255834 0)
(7.10095 -0.309083 0)
(7.56265 -0.27151 0)
(8.05485 -0.147177 0)
(8.54021 0.00397657 0)
(9.05586 0.118176 0)
(9.56977 0.16013 0)
(9.94185 0.107102 0)
(10.16 -0.0180256 0)
(10.4396 -0.106896 0)
(10.8394 -0.104679 0)
(11.2694 -0.0447817 0)
(11.5145 -0.0953729 0)
(11.538 -0.279631 0)
(11.5429 -0.431761 0)
(11.653 -0.468742 0)
(11.7484 -0.486953 0)
(11.4982 -0.713679 0)
(11.2914 -0.897487 0)
(11.129 -1.03264 0)
(10.8673 -1.22574 0)
(10.7089 -1.3219 0)
(10.6173 -1.33173 0)
(10.4671 -1.3581 0)
(10.3326 -1.37289 0)
(10.3269 -1.30711 0)
(10.4119 -1.19681 0)
(10.5626 -1.06367 0)
(10.7707 -0.923342 0)
(11.0414 -0.773142 0)
(11.3979 -0.570698 0)
(11.8072 -0.327001 0)
(0.863059 -0.0018184 0)
(2.35232 -0.0116753 0)
(3.51861 -0.0264622 0)
(4.33242 -0.0526209 0)
(4.87295 -0.0851189 0)
(5.31555 -0.105327 0)
(5.79196 -0.111147 0)
(6.31039 -0.128828 0)
(6.77859 -0.19113 0)
(7.17829 -0.280418 0)
(7.59664 -0.325845 0)
(8.0548 -0.275862 0)
(8.50531 -0.142772 0)
(8.99191 0.0246767 0)
(9.51354 0.147182 0)
(9.95418 0.171382 0)
(10.2048 0.0869854 0)
(10.3999 -0.0241109 0)
(10.7195 -0.0700751 0)
(11.1273 -0.0385703 0)
(11.497 -0.000876996 0)
(11.6255 -0.119403 0)
(11.5958 -0.323601 0)
(11.6365 -0.443405 0)
(11.7995 -0.455888 0)
(11.729 -0.581025 0)
(11.408 -0.831309 0)
(11.2424 -0.957044 0)
(11.0063 -1.12999 0)
(10.7793 -1.29915 0)
(10.674 -1.35934 0)
(10.5686 -1.39122 0)
(10.4248 -1.44126 0)
(10.3724 -1.42611 0)
(10.4316 -1.33244 0)
(10.5645 -1.20547 0)
(10.7707 -1.0643 0)
(11.0282 -0.92096 0)
(11.3412 -0.742637 0)
(11.7269 -0.507589 0)
(12.1211 -0.268145 0)
(0.889015 -0.00206315 0)
(2.38877 -0.0107012 0)
(3.55668 -0.0199489 0)
(4.38514 -0.0375807 0)
(4.92766 -0.06838 0)
(5.32353 -0.0961433 0)
(5.73416 -0.099269 0)
(6.23399 -0.0898159 0)
(6.75818 -0.113123 0)
(7.21123 -0.194896 0)
(7.62567 -0.291211 0)
(8.06709 -0.330456 0)
(8.49209 -0.277536 0)
(8.92701 -0.129391 0)
(9.43883 0.0574049 0)
(9.93093 0.17293 0)
(10.2584 0.163132 0)
(10.4197 0.0628391 0)
(10.6399 -0.00989858 0)
(10.9861 -0.0166155 0)
(11.378 0.0311451 0)
(11.6563 0.0236993 0)
(11.6726 -0.157148 0)
(11.6374 -0.35175 0)
(11.7602 -0.420913 0)
(11.866 -0.469833 0)
(11.59 -0.707597 0)
(11.3154 -0.902161 0)
(11.1336 -1.02343 0)
(10.869 -1.21605 0)
(10.7112 -1.33978 0)
(10.6334 -1.39219 0)
(10.5191 -1.45995 0)
(10.4294 -1.50518 0)
(10.4521 -1.45503 0)
(10.5631 -1.34066 0)
(10.7603 -1.19854 0)
(11.0174 -1.05637 0)
(11.3051 -0.904021 0)
(11.6564 -0.695088 0)
(12.0565 -0.44617 0)
(12.4098 -0.229961 0)
(0.912608 -0.00212329 0)
(2.41704 -0.00978197 0)
(3.57636 -0.0158864 0)
(4.41372 -0.025146 0)
(4.97964 -0.0483007 0)
(5.36404 -0.0831097 0)
(5.70662 -0.100214 0)
(6.13509 -0.0803427 0)
(6.66078 -0.0575154 0)
(7.1722 -0.0921007 0)
(7.61619 -0.189529 0)
(8.05915 -0.28713 0)
(8.49226 -0.328869 0)
(8.87897 -0.273099 0)
(9.33935 -0.0984453 0)
(9.86377 0.0988197 0)
(10.2794 0.186686 0)
(10.4851 0.13881 0)
(10.6145 0.0494846 0)
(10.8796 0.0247835 0)
(11.2322 0.0471752 0)
(11.5845 0.0937597 0)
(11.7438 0.0207371 0)
(11.6825 -0.199585 0)
(11.7052 -0.349165 0)
(11.8721 -0.382993 0)
(11.767 -0.541204 0)
(11.4107 -0.810546 0)
(11.2154 -0.944077 0)
(10.9819 -1.10267 0)
(10.7552 -1.27547 0)
(10.6633 -1.361 0)
(10.5909 -1.43335 0)
(10.4939 -1.52253 0)
(10.471 -1.53901 0)
(10.5543 -1.45871 0)
(10.7376 -1.32544 0)
(10.9994 -1.17893 0)
(11.2797 -1.04152 0)
(11.5989 -0.871234 0)
(11.9885 -0.637494 0)
(12.3663 -0.39998 0)
(12.6842 -0.206487 0)
(0.930128 -0.0019579 0)
(2.43586 -0.0076518 0)
(3.58247 -0.012512 0)
(4.4211 -0.0168033 0)
(5.01434 -0.029997 0)
(5.4282 -0.0622871 0)
(5.74043 -0.0994932 0)
(6.08171 -0.0987431 0)
(6.54344 -0.0521543 0)
(7.07344 -0.0212029 0)
(7.56101 -0.0687339 0)
(8.01107 -0.1739 0)
(8.47078 -0.27303 0)
(8.85862 -0.325294 0)
(9.23975 -0.253238 0)
(9.74399 -0.0476503 0)
(10.2405 0.139369 0)
(10.5453 0.182723 0)
(10.6573 0.109137 0)
(10.8102 0.0574825 0)
(11.1116 0.0746948 0)
(11.4533 0.115179 0)
(11.7356 0.136009 0)
(11.7716 -0.00984813 0)
(11.6951 -0.231446 0)
(11.8045 -0.309262 0)
(11.8576 -0.38159 0)
(11.5472 -0.643922 0)
(11.2663 -0.862803 0)
(11.0871 -0.994708 0)
(10.8329 -1.18062 0)
(10.6843 -1.3083 0)
(10.6303 -1.3809 0)
(10.555 -1.48093 0)
(10.4945 -1.56219 0)
(10.5364 -1.54075 0)
(10.7002 -1.43383 0)
(10.9659 -1.29122 0)
(11.2569 -1.15631 0)
(11.5553 -1.01837 0)
(11.9207 -0.822538 0)
(12.3147 -0.584477 0)
(12.65 -0.372009 0)
(12.9668 -0.179907 0)
(0.937946 -0.00150404 0)
(2.43976 -0.00395015 0)
(3.57619 -0.00715199 0)
(4.41111 -0.00984717 0)
(5.02526 -0.0161835 0)
(5.48568 -0.0383807 0)
(5.82381 -0.0834321 0)
(6.11129 -0.118463 0)
(6.47553 -0.0928423 0)
(6.95998 -0.0203058 0)
(7.47317 0.0129968 0)
(7.93945 -0.0445002 0)
(8.40501 -0.149157 0)
(8.84021 -0.257844 0)
(9.17732 -0.31675 0)
(9.59723 -0.209751 0)
(10.1256 0.0151566 0)
(10.5484 0.168006 0)
(10.7352 0.161348 0)
(10.8068 0.0874284 0)
(11.0127 0.0883134 0)
(11.328 0.133973 0)
(11.64 0.178705 0)
(11.8253 0.148159 0)
(11.7638 -0.0580307 0)
(11.7367 -0.230447 0)
(11.8525 -0.263652 0)
(11.6792 -0.44259 0)
(11.3369 -0.723878 0)
(11.1527 -0.893648 0)
(10.9385 -1.06733 0)
(10.7275 -1.23969 0)
(10.6505 -1.32643 0)
(10.6015 -1.40967 0)
(10.5288 -1.52238 0)
(10.5212 -1.57235 0)
(10.6532 -1.51249 0)
(10.9149 -1.38795 0)
(11.2253 -1.25512 0)
(11.5245 -1.1352 0)
(11.8607 -0.98162 0)
(12.2526 -0.767741 0)
(12.6126 -0.547398 0)
(12.9242 -0.347815 0)
(13.2544 -0.142497 0)
(0.934305 -0.000924469 0)
(2.42257 0.00102343 0)
(3.55359 0.00152066 0)
(4.38441 -0.000552765 0)
(5.01285 -0.00414915 0)
(5.51232 -0.0169753 0)
(5.91208 -0.0539264 0)
(6.20923 -0.11269 0)
(6.49832 -0.138657 0)
(6.88987 -0.0837622 0)
(7.37773 0.0101455 0)
(7.86499 0.0417327 0)
(8.32189 -0.0187624 0)
(8.78643 -0.121819 0)
(9.15539 -0.24851 0)
(9.47845 -0.294393 0)
(9.95608 -0.143741 0)
(10.4644 0.07695 0)
(10.7826 0.176875 0)
(10.8735 0.129104 0)
(10.9596 0.0846714 0)
(11.2155 0.13729 0)
(11.519 0.197409 0)
(11.7811 0.228643 0)
(11.8555 0.129341 0)
(11.7402 -0.101755 0)
(11.7832 -0.189485 0)
(11.761 -0.266378 0)
(11.4447 -0.530284 0)
(11.1987 -0.767203 0)
(11.0322 -0.9414 0)
(10.8042 -1.14326 0)
(10.6724 -1.27345 0)
(10.6314 -1.3432 0)
(10.5708 -1.44567 0)
(10.5247 -1.54838 0)
(10.6107 -1.55492 0)
(10.8565 -1.46491 0)
(11.1805 -1.34111 0)
(11.4971 -1.22851 0)
(11.8162 -1.10854 0)
(12.1872 -0.932834 0)
(12.5646 -0.721303 0)
(12.8868 -0.520326 0)
(13.1968 -0.315113 0)
(13.5288 -0.0991203 0)
(0.918636 -0.0003685 0)
(2.38062 0.0063912 0)
(3.50778 0.0131052 0)
(4.33953 0.0131641 0)
(4.9768 0.0105953 0)
(5.50279 0.0024558 0)
(5.96152 -0.0210756 0)
(6.32139 -0.0781857 0)
(6.59794 -0.146892 0)
(6.90297 -0.15722 0)
(7.31338 -0.0729652 0)
(7.79272 0.036507 0)
(8.25588 0.0652736 0)
(8.70857 0.0079555 0)
(9.13102 -0.102056 0)
(9.42881 -0.242758 0)
(9.78875 -0.24991 0)
(10.3049 -0.065064 0)
(10.7492 0.124659 0)
(10.953 0.162923 0)
(10.9901 0.096757 0)
(11.1257 0.10525 0)
(11.404 0.197079 0)
(11.6753 0.259826 0)
(11.8702 0.259025 0)
(11.8218 0.08473 0)
(11.7195 -0.1094 0)
(11.7644 -0.14758 0)
(11.5631 -0.328017 0)
(11.2677 -0.599868 0)
(11.0962 -0.80263 0)
(10.8964 -1.01019 0)
(10.7097 -1.19712 0)
(10.6471 -1.28801 0)
(10.6103 -1.36711 0)
(10.5535 -1.4836 0)
(10.5897 -1.55482 0)
(10.8031 -1.51879 0)
(11.1291 -1.41621 0)
(11.4644 -1.30671 0)
(11.7828 -1.20511 0)
(12.1286 -1.06985 0)
(12.5058 -0.882306 0)
(12.8478 -0.686548 0)
(13.1481 -0.49199 0)
(13.4603 -0.273631 0)
(13.7826 -0.0550389 0)
(0.891029 0.000306249 0)
(2.31345 0.0116862 0)
(3.43283 0.0258543 0)
(4.27309 0.0315005 0)
(4.91772 0.0300542 0)
(5.45994 0.0243754 0)
(5.95649 0.0102498 0)
(6.39154 -0.0298661 0)
(6.7169 -0.108379 0)
(6.99062 -0.180968 0)
(7.31483 -0.171963 0)
(7.73654 -0.0609753 0)
(8.20275 0.0580595 0)
(8.64853 0.0859304 0)
(9.08075 0.0309404 0)
(9.42509 -0.0958571 0)
(9.69075 -0.229756 0)
(10.1154 -0.183405 0)
(10.6279 0.0117799 0)
(10.9779 0.148393 0)
(11.0792 0.129121 0)
(11.1097 0.0753073 0)
(11.2982 0.146221 0)
(11.5647 0.259336 0)
(11.7959 0.317591 0)
(11.8882 0.259751 0)
(11.7401 0.0352676 0)
(11.704 -0.0752176 0)
(11.6475 -0.156485 0)
(11.369 -0.408856 0)
(11.154 -0.64777 0)
(10.9803 -0.854512 0)
(10.7696 -1.07614 0)
(10.6561 -1.22104 0)
(10.633 -1.29775 0)
(10.5968 -1.40277 0)
(10.5997 -1.51445 0)
(10.7658 -1.54118 0)
(11.0779 -1.47643 0)
(11.4253 -1.37676 0)
(11.7521 -1.27979 0)
(12.0792 -1.17402 0)
(12.4409 -1.02128 0)
(12.7996 -0.837675 0)
(13.1073 -0.657037 0)
(13.3966 -0.457117 0)
(13.7092 -0.226137 0)
(14.015 -0.0122886 0)
(0.852107 0.00106174 0)
(2.22316 0.0168364 0)
(3.32693 0.0381888 0)
(4.18096 0.0522235 0)
(4.83854 0.0542269 0)
(5.39037 0.0501243 0)
(5.90426 0.0416134 0)
(6.39397 0.019017 0)
(6.7952 -0.0427718 0)
(7.09866 -0.139286 0)
(7.38157 -0.210611 0)
(7.72292 -0.181096 0)
(8.15326 -0.0468543 0)
(8.60696 0.0769091 0)
(9.03417 0.104349 0)
(9.41357 0.0434271 0)
(9.67907 -0.0995319 0)
(9.96833 -0.198996 0)
(10.4474 -0.103163 0)
(10.9146 0.0736549 0)
(11.1554 0.14313 0)
(11.1842 0.0835151 0)
(11.2441 0.0719237 0)
(11.4636 0.197034 0)
(11.6997 0.319069 0)
(11.8701 0.358879 0)
(11.8239 0.223067 0)
(11.6681 0.0138152 0)
(11.6627 -0.0449743 0)
(11.4816 -0.218884 0)
(11.2296 -0.477893 0)
(11.0506 -0.694785 0)
(10.848 -0.919883 0)
(10.6792 -1.11979 0)
(10.6374 -1.22695 0)
(10.6327 -1.31894 0)
(10.6336 -1.44383 0)
(10.7525 -1.52586 0)
(11.0317 -1.51145 0)
(11.3793 -1.43517 0)
(11.7166 -1.34283 0)
(12.0359 -1.24986 0)
(12.3746 -1.13053 0)
(12.7367 -0.969029 0)
(13.0644 -0.798934 0)
(13.3441 -0.626207 0)
(13.6325 -0.41355 0)
(13.9398 -0.175845 0)
(14.2263 0.0303411 0)
(0.803156 0.00168325 0)
(2.11319 0.0214874 0)
(3.19348 0.049203 0)
(4.06079 0.0722787 0)
(4.74216 0.0808799 0)
(5.30522 0.0786884 0)
(5.82235 0.0729814 0)
(6.3365 0.0630303 0)
(6.8036 0.0268897 0)
(7.16981 -0.0567441 0)
(7.4677 -0.166032 0)
(7.76303 -0.233613 0)
(8.12155 -0.18201 0)
(8.5596 -0.0290704 0)
(9.00166 0.095345 0)
(9.39298 0.116931 0)
(9.69669 0.0414298 0)
(9.92065 -0.101222 0)
(10.2708 -0.146578 0)
(10.7686 -0.021291 0)
(11.1583 0.111595 0)
(11.2925 0.109199 0)
(11.2891 0.0369295 0)
(11.3953 0.0845173 0)
(11.6202 0.246633 0)
(11.8098 0.367035 0)
(11.8788 0.361843 0)
(11.7276 0.16437 0)
(11.6397 0.0206599 0)
(11.5728 -0.0682161 0)
(11.3302 -0.301599 0)
(11.1203 -0.536389 0)
(10.9297 -0.754976 0)
(10.7327 -0.982229 0)
(10.6429 -1.14067 0)
(10.6521 -1.2358 0)
(10.6732 -1.3542 0)
(10.7618 -1.47183 0)
(10.9962 -1.51218 0)
(11.3289 -1.47189 0)
(11.6711 -1.39486 0)
(11.9919 -1.30781 0)
(12.3105 -1.20941 0)
(12.6586 -1.07501 0)
(13.0047 -0.916665 0)
(13.2958 -0.762857 0)
(13.5619 -0.587977 0)
(13.8556 -0.361448 0)
(14.1482 -0.125713 0)
(14.4218 0.0764802 0)
(0.746162 0.00218683 0)
(1.98756 0.025328 0)
(3.03937 0.0582051 0)
(3.91479 0.0893867 0)
(4.63006 0.106865 0)
(5.21525 0.107937 0)
(5.73353 0.102884 0)
(6.24557 0.0995513 0)
(6.74898 0.0861635 0)
(7.17741 0.0334204 0)
(7.5212 -0.067985 0)
(7.82433 -0.186416 0)
(8.1297 -0.248164 0)
(8.50745 -0.172857 0)
(8.95475 -0.00581376 0)
(9.37649 0.111738 0)
(9.70767 0.118526 0)
(9.94253 0.0287873 0)
(10.1774 -0.0894633 0)
(10.589 -0.0771851 0)
(11.0641 0.0512278 0)
(11.3554 0.119305 0)
(11.4048 0.0541958 0)
(11.4109 -0.00173723 0)
(11.5644 0.105536 0)
(11.7659 0.28335 0)
(11.8851 0.384957 0)
(11.8421 0.314797 0)
(11.6736 0.107502 0)
(11.6222 0.0119366 0)
(11.4534 -0.145542 0)
(11.209 -0.384 0)
(11.0098 -0.600536 0)
(10.8094 -0.826185 0)
(10.6711 -1.02877 0)
(10.6636 -1.15192 0)
(10.7076 -1.25993 0)
(10.7864 -1.38772 0)
(10.9755 -1.47454 0)
(11.2793 -1.4783 0)
(11.6171 -1.42764 0)
(11.9403 -1.35289 0)
(12.248 -1.26579 0)
(12.5724 -1.154 0)
(12.9204 -1.01064 0)
(13.2352 -0.865892 0)
(13.4975 -0.723786 0)
(13.7681 -0.538392 0)
(14.06 -0.304992 0)
(14.3355 -0.0750049 0)
(14.6046 0.128375 0)
(0.682765 0.00257114 0)
(1.85034 0.0283918 0)
(2.87259 0.0651394 0)
(3.75024 0.102155 0)
(4.50242 0.129309 0)
(5.12672 0.136015 0)