/*--------------------------------*- C++ -*----------------------------------*\
| =========                 |                                                 |
| \\      /  F ield         | OpenFOAM: The Open Source CFD Toolbox           |
|  \\    /   O peration     | Version:  5.x                                   |
|   \\  /    A nd           | Web:      www.OpenFOAM.org                      |
|    \\/     M anipulation  |                                                 |
\*---------------------------------------------------------------------------*/
FoamFile
{
    version     2.0;
    format      ascii;
    class       volVectorField;
    location    "0.3";
    object      Urom;
}
// * * * * * * * * * * * * * * * * * * * * * * * * * * * * * * * * * * * * * //

dimensions      [0 1 -1 0 0 0 0];

internalField   nonuniform List<vector> 
17457
(
(-1.18011 -0.00617795 0)
(-1.05079 -0.00637596 0)
(-2.26523 -0.0595268 0)
(-0.936588 -0.00592402 0)
(-2.01807 -0.0540729 0)
(-2.46266 -0.132174 0)
(-0.84012 -0.00551017 0)
(-1.81905 -0.0458897 0)
(-2.23023 -0.110488 0)
(-2.28554 -0.194151 0)
(-0.752665 -0.00595973 0)
(-1.66253 -0.0383708 0)
(-2.07536 -0.0866558 0)
(-2.15022 -0.149142 0)
(-2.1045 -0.228333 0)
(-0.667445 -0.00635954 0)
(-1.5291 -0.0349061 0)
(-1.96483 -0.0696811 0)
(-2.08306 -0.110668 0)
(-2.05944 -0.165599 0)
(-2.03403 -0.24084 0)
(-0.59148 -0.00532359 0)
(-1.40648 -0.0324792 0)
(-1.86236 -0.0627644 0)
(-2.03781 -0.0904833 0)
(-2.04584 -0.118997 0)
(-2.02506 -0.169588 0)
(-2.04548 -0.248228 0)
(-0.536933 -0.00317686 0)
(-1.30374 -0.0258668 0)
(-1.75941 -0.0578538 0)
(-1.98156 -0.0852958 0)
(-2.04048 -0.0985137 0)
(-2.02994 -0.118696 0)
(-2.02784 -0.170324 0)
(-2.09212 -0.263874 0)
(-0.503737 -0.00156198 0)
(-1.23368 -0.0160727 0)
(-1.674 -0.0450549 0)
(-1.90724 -0.0808858 0)
(-2.02142 -0.0985763 0)
(-2.04252 -0.0982937 0)
(-2.03785 -0.114508 0)
(-2.04805 -0.174009 0)
(-2.14716 -0.291571 0)
(-0.481948 -0.000695807 0)
(-1.18965 -0.00920842 0)
(-1.6206 -0.0279234 0)
(-1.83513 -0.0625668 0)
(-1.96873 -0.100424 0)
(-2.03853 -0.106324 0)
(-2.0592 -0.0954662 0)
(-2.05671 -0.108956 0)
(-2.07783 -0.183322 0)
(-2.19802 -0.326905 0)
(-0.466323 -0.0004427 0)
(-1.15265 -0.00607853 0)
(-1.58687 -0.0182318 0)
(-1.78897 -0.0387912 0)
(-1.89153 -0.0808241 0)
(-1.98773 -0.12028 0)
(-2.04908 -0.115028 0)
(-2.0757 -0.0936126 0)
(-2.07183 -0.106028 0)
(-2.10716 -0.199918 0)
(-2.23419 -0.364533 0)
(-0.459845 0.000351251 0)
(-1.1189 -0.00354232 0)
(-1.54752 -0.0162998 0)
(-1.76637 -0.0275121 0)
(-1.83618 -0.0481355 0)
(-1.89988 -0.102506 0)
(-1.98567 -0.142772 0)
(-2.05298 -0.12757 0)
(-2.07324 -0.094756 0)
(-2.06937 -0.110946 0)
(-2.12015 -0.226616 0)
(-2.24541 -0.404182 0)
(-0.463906 0.00135046 0)
(-1.09971 0.000847837 0)
(-1.49723 -0.0126674 0)
(-1.73922 -0.0295631 0)
(-1.82602 -0.0314312 0)
(-1.8384 -0.0565007 0)
(-1.89877 -0.125757 0)
(-1.98543 -0.166142 0)
(-2.045 -0.140914 0)
(-2.04541 -0.0997246 0)
(-2.0422 -0.126327 0)
(-2.1042 -0.265329 0)
(-2.22583 -0.450816 0)
(-0.472636 0.00170852 0)
(-1.09461 0.00444327 0)
(-1.45378 -0.00469351 0)
(-1.68506 -0.0290374 0)
(-1.82509 -0.0386165 0)
(-1.8425 -0.0286745 0)
(-1.84344 -0.0633271 0)
(-1.91857 -0.146991 0)
(-1.99668 -0.184585 0)
(-2.02443 -0.149508 0)
(-1.99905 -0.106798 0)
(-1.99403 -0.15108 0)
(-2.05842 -0.314673 0)
(-2.17335 -0.509153 0)
(-0.478993 0.00143098 0)
(-1.08865 0.00471186 0)
(-1.41937 0.000321987 0)
(-1.61518 -0.0205806 0)
(-1.78314 -0.0478407 0)
(-1.86727 -0.0410393 0)
(-1.85571 -0.0208448 0)
(-1.87848 -0.0691374 0)
(-1.9683 -0.161691 0)
(-2.01454 -0.191522 0)
(-1.99632 -0.148976 0)
(-1.94516 -0.111983 0)
(-1.93531 -0.180428 0)
(-1.99166 -0.370883 0)
(-2.0849 -0.578024 0)
(-0.482329 0.00156305 0)
(-1.07221 0.00266573 0)
(-1.37266 -0.0023049 0)
(-1.5399 -0.0169242 0)
(-1.69271 -0.045771 0)
(-1.83935 -0.0671404 0)
(-1.88857 -0.0393608 0)
(-1.87994 -0.0137009 0)
(-1.94813 -0.0761705 0)
(-2.03154 -0.166206 0)
(-2.03038 -0.184159 0)
(-1.96538 -0.137205 0)
(-1.89369 -0.113074 0)
(-1.87301 -0.208719 0)
(-1.91048 -0.428084 0)
(-1.9539 -0.650669 0)
(-0.485691 0.00214489 0)
(-1.04715 0.00177468 0)
(-1.30194 -0.00884082 0)
(-1.4384 -0.0265975 0)
(-1.57225 -0.0482696 0)
(-1.73221 -0.0800567 0)
(-1.86039 -0.0880934 0)
(-1.89074 -0.0399888 0)
(-1.91909 -0.0158979 0)
(-2.03093 -0.0860124 0)
(-2.08271 -0.160697 0)
(-2.03494 -0.164987 0)
(-1.93205 -0.115854 0)
(-1.84754 -0.110485 0)
(-1.80691 -0.233025 0)
(-1.80904 -0.478767 0)
(-1.77497 -0.720933 0)
(-0.485957 0.00244071 0)
(-1.01487 0.00117524 0)
(-1.21443 -0.0129677 0)
(-1.29723 -0.0406173 0)
(-1.41434 -0.0686859 0)
(-1.57062 -0.0934336 0)
(-1.73805 -0.122703 0)
(-1.84394 -0.113473 0)
(-1.87685 -0.0510234 0)
(-1.96767 -0.0346314 0)
(-2.09375 -0.0982479 0)
(-2.10474 -0.149549 0)
(-2.01899 -0.138259 0)
(-1.89297 -0.0903972 0)
(-1.79752 -0.104818 0)
(-1.72978 -0.251577 0)
(-1.67239 -0.516252 0)
(-1.55404 -0.785696 0)
(-0.472712 0.00153708 0)
(-0.964551 -0.00315339 0)
(-1.11486 -0.0173955 0)
(-1.1332 -0.0488819 0)
(-1.20618 -0.0927028 0)
(-1.36682 -0.126936 0)
(-1.54826 -0.150319 0)
(-1.71285 -0.172004 0)
(-1.79693 -0.144473 0)
(-1.86088 -0.0794249 0)
(-2.0064 -0.0695758 0)
(-2.11303 -0.112639 0)
(-2.09234 -0.137834 0)
(-1.97747 -0.108535 0)
(-1.84157 -0.066496 0)
(-1.72628 -0.0971078 0)
(-1.62423 -0.263546 0)
(-1.49093 -0.538885 0)
(-1.31345 -0.843297 0)
(-0.439819 0.000325162 0)
(-0.879754 -0.0121633 0)
(-0.991864 -0.0297091 0)
(-0.962316 -0.0564688 0)
(-0.97222 -0.104372 0)
(-1.11002 -0.162755 0)
(-1.31471 -0.197431 0)
(-1.51357 -0.21572 0)
(-1.66598 -0.223437 0)
(-1.74118 -0.182107 0)
(-1.85304 -0.125917 0)
(-2.01164 -0.11371 0)
(-2.08642 -0.131428 0)
(-2.04287 -0.128656 0)
(-1.90867 -0.0820054 0)
(-1.76376 -0.0463856 0)
(-1.61429 -0.0903495 0)
(-1.46734 -0.272322 0)
(-1.27068 -0.55316 0)
(-1.07788 -0.893003 0)
(-0.388653 -0.000876378 0)
(-0.758344 -0.0204656 0)
(-0.831308 -0.0486944 0)
(-0.776677 -0.0752395 0)
(-0.744675 -0.11174 0)
(-0.827963 -0.176114 0)
(-1.03402 -0.245212 0)
(-1.26689 -0.275672 0)
(-1.47781 -0.284303 0)
(-1.61144 -0.272456 0)
(-1.70189 -0.228351 0)
(-1.84475 -0.182866 0)
(-1.975 -0.160183 0)
(-2.0216 -0.15616 0)
(-1.95102 -0.124157 0)
(-1.80565 -0.0653299 0)
(-1.63557 -0.032164 0)
(-1.44165 -0.0903594 0)
(-1.24947 -0.28432 0)
(-1.03072 -0.569517 0)
(-0.854793 -0.936311 0)
(-0.324687 -0.00166196 0)
(-0.613292 -0.0265059 0)
(-0.637906 -0.0639039 0)
(-0.561242 -0.102724 0)
(-0.517239 -0.134212 0)
(-0.564257 -0.179597 0)
(-0.730742 -0.259161 0)
(-0.982187 -0.334005 0)
(-1.23616 -0.357955 0)
(-1.44617 -0.3498 0)
(-1.56779 -0.319758 0)
(-1.68573 -0.281771 0)
(-1.81775 -0.239279 0)
(-1.90644 -0.207348 0)
(-1.91958 -0.184068 0)
(-1.81257 -0.127969 0)
(-1.65049 -0.0618792 0)
(-1.43318 -0.0277779 0)
(-1.20077 -0.102913 0)
(-0.987092 -0.305783 0)
(-0.785786 -0.598346 0)
(-0.634068 -0.977171 0)
(-0.252246 -0.002499 0)
(-0.457327 -0.0304197 0)
(-0.43264 -0.072367 0)
(-0.32424 -0.122294 0)
(-0.269398 -0.167886 0)
(-0.313105 -0.202875 0)
(-0.449578 -0.255991 0)
(-0.677969 -0.347895 0)
(-0.955854 -0.425077 0)
(-1.22566 -0.44038 0)
(-1.417 -0.409527 0)
(-1.54726 -0.369936 0)
(-1.67638 -0.335519 0)
(-1.76458 -0.289021 0)
(-1.81597 -0.253481 0)
(-1.77389 -0.211258 0)
(-1.62767 -0.141772 0)
(-1.42462 -0.068203 0)
(-1.154 -0.0359317 0)
(-0.907474 -0.131999 0)
(-0.703386 -0.34373 0)
(-0.534221 -0.646383 0)
(-0.39928 -1.0217 0)
(-0.174326 -0.00270598 0)
(-0.291248 -0.0343384 0)
(-0.230235 -0.078451 0)
(-0.0923377 -0.128798 0)
(-0.0126032 -0.187999 0)
(-0.0518176 -0.239676 0)
(-0.193521 -0.276944 0)
(-0.398102 -0.335477 0)
(-0.660552 -0.437429 0)
(-0.95597 -0.516888 0)
(-1.21947 -0.519001 0)
(-1.3905 -0.467978 0)
(-1.54257 -0.424935 0)
(-1.65043 -0.383236 0)
(-1.68997 -0.33264 0)
(-1.69645 -0.294 0)
(-1.58421 -0.235724 0)
(-1.39459 -0.160483 0)
(-1.12772 -0.0775232 0)
(-0.821388 -0.0578636 0)
(-0.586772 -0.180742 0)
(-0.405158 -0.404008 0)
(-0.265202 -0.717316 0)
(-0.13863 -1.07727 0)
(-0.0997074 -0.00257825 0)
(-0.117745 -0.0346576 0)
(-0.0275491 -0.0845632 0)
(0.117805 -0.132979 0)
(0.222702 -0.187386 0)
(0.208138 -0.256654 0)
(0.064451 -0.314459 0)
(-0.155537 -0.351569 0)
(-0.396308 -0.413255 0)
(-0.674556 -0.525784 0)
(-0.972761 -0.607023 0)
(-1.19723 -0.592435 0)
(-1.36769 -0.5332 0)
(-1.52826 -0.483391 0)
(-1.59153 -0.425554 0)
(-1.59055 -0.373354 0)
(-1.53151 -0.326485 0)
(-1.35331 -0.25783 0)
(-1.10869 -0.176405 0)
(-0.779236 -0.0874748 0)
(-0.467125 -0.0949387 0)
(-0.25427 -0.249031 0)
(-0.0880427 -0.487448 0)
(0.0282237 -0.813506 0)
(0.154522 -1.14757 0)
(-0.0365801 -0.00210841 0)
(0.0410388 -0.0303203 0)
(0.1734 -0.0824835 0)
(0.308192 -0.137022 0)
(0.415582 -0.183551 0)
(0.431856 -0.243744 0)
(0.314737 -0.32483 0)
(0.0828489 -0.388185 0)
(-0.178095 -0.421662 0)
(-0.428721 -0.48748 0)
(-0.714814 -0.612731 0)
(-0.98155 -0.69001 0)
(-1.15472 -0.664272 0)
(-1.33691 -0.609652 0)
(-1.47409 -0.545373 0)
(-1.48813 -0.46981 0)
(-1.44622 -0.414973 0)
(-1.31134 -0.354044 0)
(-1.07641 -0.278566 0)
(-0.770361 -0.186496 0)
(-0.405854 -0.101752 0)
(-0.113784 -0.147471 0)
(0.0856932 -0.331139 0)
(0.246421 -0.591274 0)
(0.346194 -0.933226 0)
(0.487103 -1.23187 0)
(0.0187128 -0.0025955 0)
(0.16599 -0.0245263 0)
(0.347521 -0.0689213 0)
(0.479498 -0.129401 0)
(0.565098 -0.179766 0)
(0.594777 -0.225287 0)
(0.516133 -0.294971 0)
(0.310555 -0.389276 0)
(0.0280683 -0.456065 0)
(-0.229833 -0.48444 0)
(-0.484577 -0.560122 0)
(-0.767568 -0.694715 0)
(-0.961874 -0.760401 0)
(-1.09831 -0.741038 0)
(-1.27251 -0.696163 0)
(-1.35786 -0.613307 0)
(-1.3281 -0.524138 0)
(-1.23871 -0.459994 0)
(-1.03432 -0.381278 0)
(-0.747291 -0.297714 0)
(-0.392686 -0.193557 0)
(-0.0309996 -0.125887 0)
(0.231091 -0.211714 0)
(0.430881 -0.419486 0)
(0.587849 -0.710764 0)
(0.68879 -1.06787 0)
(0.863564 -1.32728 0)
(0.0717261 -0.00299328 0)
(0.265996 -0.0224658 0)
(0.475046 -0.0536943 0)
(0.617612 -0.104889 0)
(0.678172 -0.163639 0)
(0.696572 -0.208943 0)
(0.6435 -0.257037 0)
(0.477958 -0.338902 0)
(0.213749 -0.445682 0)
(-0.0628468 -0.511731 0)
(-0.289125 -0.540616 0)
(-0.556736 -0.634023 0)
(-0.809416 -0.764632 0)
(-0.914428 -0.817643 0)
(-1.02685 -0.824709 0)
(-1.15386 -0.787586 0)
(-1.17213 -0.688459 0)
(-1.10635 -0.591016 0)
(-0.966072 -0.507219 0)
(-0.704124 -0.408947 0)
(-0.373915 -0.31506 0)
(1.00119e-05 -0.203399 0)
(0.330424 -0.162387 0)
(0.571751 -0.280534 0)
(0.776447 -0.510371 0)
(0.93028 -0.839504 0)
(1.06019 -1.20449 0)
(1.27141 -1.43343 0)
(0.118879 -0.00270661 0)
(0.354118 -0.0207744 0)
(0.568488 -0.0459164 0)
(0.712753 -0.0792796 0)
(0.759272 -0.129574 0)
(0.753336 -0.182864 0)
(0.707502 -0.226053 0)
(0.569824 -0.280419 0)
(0.333484 -0.373813 0)
(0.0567204 -0.486836 0)
(-0.16025 -0.549157 0)
(-0.356175 -0.594107 0)
(-0.634911 -0.706906 0)
(-0.816459 -0.815375 0)
(-0.849647 -0.867813 0)
(-0.932275 -0.908471 0)
(-0.979326 -0.873831 0)
(-0.928316 -0.768207 0)
(-0.830079 -0.66585 0)
(-0.637793 -0.553744 0)
(-0.333817 -0.43547 0)
(0.0198705 -0.330487 0)
(0.382893 -0.219923 0)
(0.677138 -0.208459 0)
(0.915332 -0.350642 0)
(1.11921 -0.606759 0)
(1.27852 -0.969888 0)
(1.45628 -1.33219 0)
(1.6824 -1.55492 0)
(0.154539 -0.00199249 0)
(0.425287 -0.0162831 0)
(0.645599 -0.0400102 0)
(0.776488 -0.0652037 0)
(0.813396 -0.0957311 0)
(0.782724 -0.142117 0)
(0.729022 -0.190048 0)
(0.612526 -0.236474 0)
(0.394803 -0.298047 0)
(0.117185 -0.397344 0)
(-0.119557 -0.505472 0)
(-0.254977 -0.568118 0)
(-0.440367 -0.647596 0)
(-0.697528 -0.770249 0)
(-0.777318 -0.847013 0)
(-0.772729 -0.916871 0)
(-0.80829 -0.981649 0)
(-0.761522 -0.944368 0)
(-0.649765 -0.84618 0)
(-0.511283 -0.739716 0)
(-0.268484 -0.596975 0)
(0.0552904 -0.46073 0)
(0.408682 -0.345067 0)
(0.743878 -0.244307 0)
(1.02044 -0.259279 0)
(1.26501 -0.423578 0)
(1.46437 -0.711097 0)
(1.63981 -1.09407 0)
(1.8564 -1.44846 0)
(2.06982 -1.6934 0)
(0.177219 -0.00121293 0)
(0.470749 -0.0100054 0)
(0.706018 -0.0295239 0)
(0.826733 -0.056309 0)
(0.84995 -0.0771336 0)
(0.802711 -0.104622 0)
(0.727046 -0.144669 0)
(0.622228 -0.191303 0)
(0.42979 -0.245387 0)
(0.153285 -0.312358 0)
(-0.120423 -0.407373 0)
(-0.276887 -0.500406 0)
(-0.349271 -0.576269 0)
(-0.536705 -0.699737 0)
(-0.716261 -0.814404 0)
(-0.699756 -0.868653 0)
(-0.681123 -0.965329 0)
(-0.65038 -1.03567 0)
(-0.515049 -0.995801 0)
(-0.353503 -0.915851 0)
(-0.16091 -0.803641 0)
(0.122162 -0.636772 0)
(0.442759 -0.487183 0)
(0.778935 -0.362627 0)
(1.09083 -0.275206 0)
(1.37268 -0.311556 0)
(1.62078 -0.504018 0)
(1.81602 -0.820539 0)
(2.00591 -1.20744 0)
(2.23517 -1.55705 0)
(2.41745 -1.84367 0)
(0.19015 -0.000152497 0)
(0.494141 -0.0050374 0)
(0.743939 -0.0168265 0)
(0.870705 -0.042419 0)
(0.882956 -0.068113 0)
(0.825723 -0.0856947 0)
(0.725896 -0.108805 0)
(0.612402 -0.142298 0)
(0.444962 -0.19309 0)
(0.189184 -0.256407 0)
(-0.106616 -0.32427 0)
(-0.326539 -0.403934 0)
(-0.389553 -0.479808 0)
(-0.440391 -0.585796 0)
(-0.61446 -0.746067 0)
(-0.675983 -0.836394 0)
(-0.603284 -0.889447 0)
(-0.567601 -1.00774 0)
(-0.454672 -1.0668 0)
(-0.249372 -1.03123 0)
(-0.0439346 -0.972442 0)
(0.208836 -0.852229 0)
(0.512551 -0.674425 0)
(0.817392 -0.517331 0)
(1.13483 -0.386018 0)
(1.44114 -0.309087 0)
(1.73343 -0.367279 0)
(1.97689 -0.592779 0)
(2.16601 -0.930115 0)
(2.3568 -1.30911 0)
(2.57498 -1.65955 0)
(2.7147 -1.99729 0)
(0.200012 0.000114166 0)
(0.509108 -0.0028995 0)
(0.765656 -0.0083216 0)
(0.907803 -0.0261414 0)
(0.923043 -0.0546184 0)
(0.863174 -0.0794678 0)
(0.747917 -0.095424 0)
(0.606104 -0.11106 0)
(0.443487 -0.140401 0)
(0.219636 -0.199046 0)
(-0.0663011 -0.271549 0)
(-0.330892 -0.333771 0)
(-0.461378 -0.390631 0)
(-0.449636 -0.458699 0)
(-0.511723 -0.607484 0)
(-0.634611 -0.781213 0)
(-0.586521 -0.843896 0)
(-0.500471 -0.912693 0)
(-0.42547 -1.03526 0)
(-0.224002 -1.07482 0)
(0.029588 -1.05414 0)
(0.278863 -1.01115 0)
(0.582285 -0.885228 0)
(0.886316 -0.710626 0)
(1.17859 -0.54981 0)
(1.48928 -0.413088 0)
(1.80011 -0.344402 0)
(2.09037 -0.427702 0)
(2.3209 -0.683949 0)
(2.49513 -1.0338 0)
(2.67716 -1.39869 0)
(2.86606 -1.75666 0)
(2.94925 -2.15007 0)
(0.211833 0.000127149 0)
(0.529759 -0.00315637 0)
(0.785804 -0.00742074 0)
(0.940055 -0.0161864 0)
(0.966092 -0.0377677 0)
(0.915957 -0.0679564 0)
(0.805092 -0.0954136 0)
(0.63568 -0.109054 0)
(0.444541 -0.114793 0)
(0.233097 -0.142134 0)
(-0.0178542 -0.210528 0)
(-0.286596 -0.290334 0)
(-0.476888 -0.341086 0)
(-0.507942 -0.374283 0)
(-0.462503 -0.452801 0)
(-0.537977 -0.643761 0)
(-0.577569 -0.803907 0)
(-0.46736 -0.850539 0)
(-0.38751 -0.937567 0)
(-0.250863 -1.04078 0)
(0.0278737 -1.06223 0)
(0.313852 -1.0625 0)
(0.609856 -1.02698 0)
(0.941984 -0.904479 0)
(1.23758 -0.74366 0)
(1.53076 -0.579157 0)
(1.84683 -0.438683 0)
(2.15436 -0.380232 0)
(2.4259 -0.488391 0)
(2.63429 -0.769924 0)
(2.78942 -1.12527 0)
(2.95834 -1.47528 0)
(3.09921 -1.85362 0)
(3.11199 -2.30253 0)
(0.224379 0.000476028 0)
(0.56182 -0.00398803 0)
(0.818906 -0.010839 0)
(0.97804 -0.0169194 0)
(1.00836 -0.0286458 0)
(0.965615 -0.0509951 0)
(0.8799 -0.0851106 0)
(0.715513 -0.119088 0)
(0.487745 -0.128352 0)
(0.243731 -0.123129 0)
(0.0105111 -0.147754 0)
(-0.224577 -0.227501 0)
(-0.429032 -0.311599 0)
(-0.524654 -0.347174 0)
(-0.474361 -0.363874 0)
(-0.4354 -0.471807 0)
(-0.498408 -0.687719 0)
(-0.449525 -0.820185 0)
(-0.326348 -0.869522 0)
(-0.248626 -0.962263 0)
(-0.0430371 -1.02399 0)
(0.282888 -1.03312 0)
(0.595576 -1.05036 0)
(0.934912 -1.01877 0)
(1.27436 -0.911612 0)
(1.56845 -0.765988 0)
(1.87532 -0.598822 0)
(2.19531 -0.45807 0)
(2.48332 -0.413577 0)
(2.72319 -0.54408 0)
(2.90319 -0.844219 0)
(3.04312 -1.19821 0)
(3.1908 -1.54116 0)
(3.26525 -1.95652 0)
(3.21007 -2.45632 0)
(0.234405 0.00139912 0)
(0.602345 -0.00371247 0)
(0.875649 -0.0159539 0)
(1.03398 -0.0263091 0)
(1.06631 -0.0332841 0)
(1.00823 -0.0443955 0)
(0.937642 -0.0648396 0)
(0.813791 -0.108358 0)
(0.590841 -0.15135 0)
(0.30288 -0.155493 0)
(0.0279531 -0.136204 0)
(-0.185153 -0.156507 0)
(-0.362252 -0.248198 0)
(-0.475805 -0.334004 0)
(-0.475503 -0.353931 0)
(-0.381803 -0.370318 0)
(-0.36819 -0.515777 0)
(-0.386243 -0.731708 0)
(-0.26884 -0.841017 0)
(-0.159409 -0.908106 0)
(-0.0654386 -0.985011 0)
(0.195205 -0.994182 0)
(0.533421 -0.993591 0)
(0.870718 -1.01463 0)
(1.23737 -0.988512 0)
(1.576 -0.904251 0)
(1.8832 -0.769277 0)
(2.20663 -0.602471 0)
(2.51741 -0.469722 0)
(2.77174 -0.443412 0)
(2.97256 -0.592422 0)
(3.12419 -0.902711 0)
(3.25194 -1.249 0)
(3.36097 -1.60159 0)
(3.36798 -2.06773 0)
(3.27559 -2.61298 0)
(0.240871 0.00221367 0)
(0.650528 -0.00294378 0)
(0.960315 -0.0201855 0)
(1.12629 -0.0413446 0)
(1.15911 -0.0521005 0)
(1.07947 -0.0590164 0)
(0.980229 -0.061491 0)
(0.885045 -0.0812288 0)
(0.713506 -0.139342 0)
(0.432725 -0.193587 0)
(0.100701 -0.191851 0)
(-0.158881 -0.152922 0)
(-0.315379 -0.168895 0)
(-0.412274 -0.270923 0)
(-0.430465 -0.355626 0)
(-0.347211 -0.36506 0)
(-0.248261 -0.401691 0)
(-0.251451 -0.577757 0)
(-0.207431 -0.774038 0)
(-0.0543604 -0.876228 0)
(0.0397706 -0.964698 0)
(0.172499 -1.00576 0)
(0.458918 -0.967241 0)
(0.785666 -0.95165 0)
(1.13836 -0.960067 0)
(1.50974 -0.941107 0)
(1.85253 -0.877175 0)
(2.18467 -0.750664 0)
(2.51363 -0.59181 0)
(2.79887 -0.475799 0)
(3.01329 -0.470232 0)
(3.17577 -0.633575 0)
(3.30165 -0.943875 0)
(3.4083 -1.28154 0)
(3.46716 -1.66222 0)
(3.43464 -2.18557 0)
(3.3514 -2.77232 0)
(0.249458 0.00226384 0)
(0.7091 -0.00340584 0)
(1.07402 -0.0244674 0)
(1.27324 -0.0570427 0)
(1.30627 -0.0827698 0)
(1.22013 -0.0939236 0)
(1.06559 -0.0945688 0)
(0.941671 -0.0825499 0)
(0.806836 -0.104862 0)
(0.585319 -0.18036 0)
(0.257965 -0.248276 0)
(-0.0734103 -0.236437 0)
(-0.270077 -0.17462 0)
(-0.355601 -0.188027 0)
(-0.376041 -0.296043 0)
(-0.305764 -0.37471 0)
(-0.165687 -0.386202 0)
(-0.081234 -0.458771 0)
(-0.074785 -0.650721 0)
(0.0248636 -0.819808 0)
(0.177503 -0.930499 0)
(0.274398 -1.02973 0)
(0.45953 -1.02791 0)
(0.742708 -0.955442 0)
(1.04799 -0.914811 0)
(1.39505 -0.898247 0)
(1.75775 -0.880993 0)
(2.11625 -0.827055 0)
(2.46947 -0.712855 0)
(2.78544 -0.573206 0)
(3.03316 -0.478237 0)
(3.21094 -0.493318 0)
(3.34093 -0.668372 0)
(3.44097 -0.971595 0)
(3.5128 -1.30884 0)
(3.53202 -1.72636 0)
(3.5 -2.30294 0)
(3.45243 -2.92109 0)
(0.264382 0.00209603 0)
(0.783778 -0.00638059 0)
(1.21122 -0.0301844 0)
(1.4718 -0.0702067 0)
(1.5267 -0.115807 0)
(1.44089 -0.144361 0)
(1.25783 -0.155506 0)
(1.05612 -0.141283 0)
(0.895286 -0.113822 0)
(0.712531 -0.140439 0)
(0.446609 -0.23556 0)
(0.105251 -0.316422 0)
(-0.165384 -0.288046 0)
(-0.274516 -0.206096 0)
(-0.301366 -0.219616 0)
(-0.260199 -0.324755 0)
(-0.11917 -0.393244 0)
(0.0458218 -0.422351 0)
(0.119031 -0.535561 0)
(0.16194 -0.728945 0)
(0.293169 -0.87801 0)
(0.417844 -1.00227 0)
(0.542746 -1.09094 0)
(0.773816 -1.0541 0)
(1.03756 -0.961496 0)
(1.31693 -0.886606 0)
(1.63986 -0.837931 0)
(1.99654 -0.808036 0)
(2.37545 -0.756463 0)
(2.73042 -0.662518 0)
(3.01344 -0.549466 0)
(3.22136 -0.476216 0)
(3.37216 -0.510989 0)
(3.47648 -0.698217 0)
(3.54811 -0.997964 0)
(3.58278 -1.34423 0)
(3.58701 -1.79216 0)
(3.57459 -2.40413 0)
(3.56092 -3.04012 0)
(0.286608 0.00134771 0)
(0.873628 -0.00930199 0)
(1.36261 -0.037448 0)
(1.69205 -0.0792683 0)
(1.80112 -0.138073 0)
(1.7286 -0.193922 0)
(1.551 -0.227102 0)
(1.29689 -0.236353 0)
(1.0566 -0.202641 0)
(0.846558 -0.161036 0)
(0.6198 -0.192586 0)
(0.329212 -0.308489 0)
(0.0269662 -0.395976 0)
(-0.137326 -0.347401 0)
(-0.16696 -0.255094 0)
(-0.158351 -0.269783 0)
(-0.0706416 -0.360102 0)
(0.110305 -0.41836 0)
(0.274308 -0.474841 0)
(0.353886 -0.621966 0)
(0.445324 -0.8089 0)
(0.575019 -0.954881 0)
(0.669018 -1.08442 0)
(0.835659 -1.14076 0)
(1.08599 -1.08414 0)
(1.32675 -0.978357 0)
(1.58185 -0.86649 0)
(1.8797 -0.781054 0)
(2.23818 -0.72433 0)
(2.62468 -0.672986 0)
(2.95722 -0.606788 0)
(3.19609 -0.522791 0)
(3.3731 -0.467812 0)
(3.50612 -0.523047 0)
(3.58955 -0.728089 0)
(3.63095 -1.0362 0)
(3.64154 -1.39107 0)
(3.64278 -1.85191 0)
(3.64571 -2.47649 0)
(3.66584 -3.12198 0)
(0.318646 0.000189818 0)
(0.975719 -0.0126234 0)
(1.52081 -0.0434988 0)
(1.90102 -0.085725 0)
(2.07711 -0.144226 0)
(2.04009 -0.219978 0)
(1.87906 -0.284201 0)
(1.63507 -0.325543 0)
(1.33579 -0.331554 0)
(1.06046 -0.280223 0)
(0.808198 -0.227098 0)
(0.555106 -0.265743 0)
(0.276511 -0.399442 0)
(0.0645239 -0.483132 0)
(0.0168965 -0.417904 0)
(0.0377036 -0.329282 0)
(0.0672521 -0.341958 0)
(0.184021 -0.408153 0)
(0.369128 -0.459473 0)
(0.518161 -0.542731 0)
(0.620203 -0.70816 0)
(0.749162 -0.891231 0)
(0.850424 -1.05047 0)
(0.937217 -1.16584 0)
(1.13616 -1.18124 0)
(1.37379 -1.11537 0)
(1.59595 -0.996349 0)
(1.83712 -0.852372 0)
(2.12752 -0.727088 0)
(2.48506 -0.63707 0)
(2.85231 -0.586321 0)
(3.14355 -0.551672 0)
(3.34338 -0.494498 0)
(3.50356 -0.454292 0)
(3.62395 -0.534734 0)
(3.68614 -0.766693 0)
(3.69984 -1.09056 0)
(3.69814 -1.44349 0)
(3.69335 -1.90068 0)
(3.716 -2.52087 0)
(3.78633 -3.1747 0)
(0.35733 -0.000817207 0)
(1.08772 -0.0155442 0)
(1.68923 -0.0483194 0)
(2.09001 -0.0921197 0)
(2.31588 -0.141508 0)
(2.32664 -0.218102 0)
(2.18322 -0.305137 0)
(1.96614 -0.377787 0)
(1.67992 -0.429705 0)
(1.36017 -0.433919 0)
(1.06581 -0.371455 0)
(0.797953 -0.312345 0)
(0.550353 -0.360574 0)
(0.325116 -0.504847 0)
(0.230294 -0.574566 0)
(0.275561 -0.504015 0)
(0.3203 -0.430969 0)
(0.367141 -0.436917 0)
(0.490499 -0.477552 0)
(0.652341 -0.524317 0)
(0.783126 -0.624224 0)
(0.907411 -0.790533 0)
(1.04136 -0.979297 0)
(1.11284 -1.15527 0)
(1.22179 -1.23773 0)
(1.42729 -1.21911 0)
(1.63489 -1.1476 0)
(1.84612 -1.01238 0)
(2.09316 -0.840828 0)
(2.39228 -0.67803 0)
(2.73177 -0.557748 0)
(3.05351 -0.509721 0)
(3.29799 -0.504092 0)
(3.4761 -0.467977 0)
(3.63083 -0.44433 0)
(3.73663 -0.557338 0)
(3.77115 -0.823235 0)
(3.76329 -1.156 0)
(3.75099 -1.49901 0)
(3.75287 -1.94204 0)
(3.81576 -2.55105 0)
(3.95283 -3.21008 0)
(0.390036 -0.000496131 0)
(1.19496 -0.0154667 0)
(1.86954 -0.0508698 0)
(2.28553 -0.0999752 0)
(2.51204 -0.144483 0)
(2.57381 -0.20268 0)
(2.44751 -0.294136 0)
(2.23597 -0.386097 0)
(1.98356 -0.467057 0)
(1.67834 -0.530274 0)
(1.36433 -0.536245 0)
(1.08133 -0.471214 0)
(0.837227 -0.413248 0)
(0.630308 -0.473486 0)
(0.487405 -0.618316 0)
(0.506251 -0.669534 0)
(0.606259 -0.608559 0)
(0.664108 -0.55707 0)
(0.724765 -0.555245 0)
(0.833192 -0.575867 0)
(0.96072 -0.61693 0)
(1.07174 -0.717854 0)
(1.19726 -0.874541 0)
(1.30208 -1.07595 0)
(1.36961 -1.25366 0)
(1.51275 -1.29977 0)
(1.70241 -1.26371 0)
(1.8859 -1.18466 0)
(2.09856 -1.02918 0)
(2.36612 -0.831839 0)
(2.67168 -0.641261 0)
(2.97375 -0.501224 0)
(3.2388 -0.457928 0)
(3.44569 -0.473633 0)
(3.61856 -0.451822 0)
(3.76862 -0.451666 0)
(3.84905 -0.605499 0)
(3.84965 -0.900329 0)
(3.82878 -1.22926 0)
(3.82153 -1.56227 0)
(3.85947 -1.98836 0)
(3.97522 -2.58214 0)
(4.18077 -3.23519 0)
(0.406461 -6.47624e-05 0)
(1.27266 -0.0101232 0)
(2.03888 -0.0452436 0)
(2.50962 -0.104311 0)
(2.71151 -0.158937 0)
(2.78552 -0.1998 0)
(2.69658 -0.271136 0)
(2.47571 -0.370198 0)
(2.21848 -0.462411 0)
(1.94325 -0.549529 0)
(1.64056 -0.622084 0)
(1.36149 -0.633096 0)
(1.12524 -0.573599 0)
(0.943335 -0.523385 0)
(0.799804 -0.597826 0)
(0.751221 -0.732712 0)
(0.856285 -0.769263 0)
(0.979887 -0.730214 0)
(1.05331 -0.701344 0)
(1.11669 -0.697525 0)
(1.19758 -0.704257 0)
(1.29085 -0.737199 0)
(1.37543 -0.825938 0)
(1.47138 -0.970144 0)
(1.53908 -1.17858 0)
(1.6319 -1.33794 0)
(1.79741 -1.35927 0)
(1.97031 -1.32082 0)
(2.14818 -1.23164 0)
(2.37591 -1.05295 0)
(2.6625 -0.830449 0)
(2.95636 -0.626113 0)
(3.21293 -0.48011 0)
(3.4302 -0.442553 0)
(3.61426 -0.469956 0)
(3.78482 -0.45786 0)
(3.91611 -0.489892 0)
(3.95603 -0.684754 0)
(3.93321 -0.992723 0)
(3.92255 -1.31638 0)
(3.95197 -1.64211 0)
(4.03954 -2.05202 0)
(4.205 -2.6204 0)
(4.46223 -3.25533 0)
(0.409367 0.000228808 0)
(1.30896 -0.00354486 0)
(2.1579 -0.0292519 0)
(2.73392 -0.0914336 0)
(2.95334 -0.169898 0)
(2.99375 -0.220396 0)
(2.94141 -0.26279 0)
(2.73558 -0.348794 0)
(2.45328 -0.449892 0)
(2.163 -0.539246 0)
(1.87372 -0.628539 0)
(1.59692 -0.705223 0)
(1.37826 -0.722617 0)
(1.22028 -0.673389 0)
(1.11956 -0.637769 0)
(1.04606 -0.7253 0)
(1.08764 -0.842482 0)
(1.2408 -0.873885 0)
(1.37613 -0.86201 0)
(1.46796 -0.856798 0)
(1.51914 -0.862097 0)
(1.57137 -0.858422 0)
(1.62682 -0.88162 0)
(1.67765 -0.952448 0)
(1.72699 -1.08502 0)
(1.77825 -1.28295 0)
(1.90146 -1.41277 0)
(2.07426 -1.42354 0)
(2.24524 -1.38832 0)
(2.43642 -1.29 0)
(2.68719 -1.08481 0)
(2.97689 -0.844799 0)
(3.23944 -0.641598 0)
(3.45599 -0.498765 0)
(3.64454 -0.46663 0)
(3.81462 -0.497515 0)
(3.96621 -0.495321 0)
(4.05509 -0.560632 0)
(4.06152 -0.785696 0)
(4.05146 -1.09959 0)
(4.08509 -1.42422 0)
(4.16546 -1.74552 0)
(4.29455 -2.13583 0)
(4.49446 -2.66828 0)
(0.408162 -8.09009e-05 0)
(1.31188 0.000986541 0)
(2.20512 -0.00918116 0)
(2.89321 -0.0559956 0)
(3.20546 -0.149205 0)
(3.22872 -0.23859 0)
(3.16909 -0.282934 0)
(3.01682 -0.336724 0)
(2.73782 -0.437115 0)
(2.41526 -0.538881 0)
(2.10272 -0.623265 0)
(1.81269 -0.709642 0)
(1.58663 -0.782634 0)
(1.44454 -0.806085 0)
(1.38243 -0.767773 0)
(1.3551 -0.75401 0)
(1.34829 -0.847739 0)
(1.45868 -0.945178 0)
(1.62856 -0.98024 0)
(1.77917 -0.993472 0)
(1.88245 -1.01899 0)
(1.91549 -1.04217 0)
(1.93722 -1.03284 0)
(1.94888 -1.04558 0)
(1.96577 -1.09802 0)
(1.98011 -1.21927 0)
(2.03773 -1.38887 0)
(2.17758 -1.48869 0)
(2.35436 -1.4953 0)
(2.53871 -1.46337 0)
(2.75415 -1.35351 0)
(3.02468 -1.12548 0)
(3.29904 -0.883856 0)
(3.5215 -0.693442 0)
(3.70982 -0.553341 0)
(3.88087 -0.524502 0)
(4.03062 -0.556054 0)
(4.13556 -0.562328 0)
(4.18223 -0.653737 0)
(4.19797 -0.899126 0)
(4.24131 -1.22139 0)
(4.33306 -1.55257 0)
(4.45347 -1.87072 0)
(4.60902 -2.23678 0)
(0.410701 -0.000389928 0)
(1.29544 0.00171482 0)
(2.19347 0.0060074 0)
(2.93946 -0.0123612 0)
(3.38496 -0.0858756 0)
(3.45986 -0.209093 0)
(3.37475 -0.299976 0)
(3.25642 -0.344538 0)
(3.04121 -0.418406 0)
(2.72752 -0.535319 0)
(2.38525 -0.639977 0)
(2.06383 -0.719564 0)
(1.79779 -0.795729 0)
(1.6404 -0.858516 0)
(1.58319 -0.884983 0)
(1.61078 -0.858773 0)
(1.63471 -0.870771 0)
(1.68383 -0.960915 0)
(1.82758 -1.04128 0)
(2.0008 -1.08063 0)
(2.17131 -1.1158 0)
(2.2738 -1.18271 0)
(2.29278 -1.22961 0)
(2.27391 -1.22309 0)
(2.24843 -1.2226 0)
(2.24206 -1.26069 0)
(2.24791 -1.36711 0)
(2.31948 -1.50132 0)
(2.46802 -1.57497 0)
(2.65186 -1.57659 0)
(2.85364 -1.54327 0)
(3.09658 -1.41812 0)
(3.37562 -1.18013 0)
(3.623 -0.954742 0)
(3.80874 -0.780139 0)
(3.97342 -0.637553 0)
(4.12169 -0.609178 0)
(4.22959 -0.638736 0)
(4.28912 -0.651224 0)
(4.33335 -0.761812 0)
(4.40169 -1.02152 0)
(4.51182 -1.35317 0)
(4.64736 -1.6955 0)
(4.79345 -2.0094 0)
(4.962 -2.34956 0)
(0.413192 -0.000261571 0)
(1.27643 0.001654 0)
(2.14828 0.0117082 0)
(2.89651 0.0179245 0)
(3.42708 -0.00930715 0)
(3.6214 -0.117214 0)
(3.5434 -0.260125 0)
(3.41386 -0.346884 0)
(3.26572 -0.399876 0)
(3.02772 -0.49967 0)
(2.71127 -0.638537 0)
(2.37431 -0.75141 0)
(2.06544 -0.827807 0)
(1.85403 -0.885749 0)
(1.77144 -0.935541 0)
(1.79987 -0.960281 0)
(1.88955 -0.951484 0)
(1.94553 -0.986415 0)
(2.02838 -1.06689 0)
(2.17093 -1.13196 0)
(2.34919 -1.16708 0)
(2.53427 -1.22537 0)
(2.62987 -1.34048 0)
(2.63179 -1.41942 0)
(2.5744 -1.42265 0)
(2.53259 -1.40728 0)
(2.51805 -1.43646 0)
(2.535 -1.52425 0)
(2.62533 -1.62519 0)
(2.78431 -1.67619 0)
(2.97344 -1.67112 0)
(3.19168 -1.62669 0)
(3.45682 -1.48668 0)
(3.73169 -1.25484 0)
(3.947 -1.05923 0)
(4.1014 -0.897534 0)
(4.23636 -0.748469 0)
(4.34205 -0.714124 0)
(4.40957 -0.739954 0)
(4.46563 -0.758732 0)
(4.54667 -0.881756 0)
(4.67953 -1.14634 0)
(4.83825 -1.4887 0)
(4.99928 -1.84292 0)
(5.16295 -2.15222 0)
(0.404601 0.000882265 0)
(1.26082 0.0034151 0)
(2.10309 0.00973443 0)
(2.83232 0.0260589 0)
(3.36714 0.0347895 0)
(3.67359 -0.00755193 0)
(3.66199 -0.149055 0)
(3.50937 -0.296579 0)
(3.36533 -0.377546 0)
(3.20989 -0.443214 0)
(2.97996 -0.572322 0)
(2.69004 -0.738965 0)
(2.38491 -0.867268 0)
(2.12026 -0.940557 0)
(1.98443 -0.976587 0)
(1.97675 -1.01171 0)
(2.0792 -1.03363 0)
(2.19905 -1.04895 0)
(2.27424 -1.10064 0)
(2.36056 -1.17131 0)
(2.48493 -1.21696 0)
(2.6723 -1.23738 0)
(2.85838 -1.32206 0)
(2.94315 -1.48851 0)
(2.92103 -1.6092 0)
(2.85261 -1.62302 0)
(2.81528 -1.59812 0)
(2.80486 -1.62113 0)
(2.84273 -1.68808 0)
(2.95917 -1.76032 0)
(3.12876 -1.79628 0)
(3.32066 -1.78084 0)
(3.55441 -1.71647 0)
(3.82939 -1.56583 0)
(4.08576 -1.3541 0)
(4.26681 -1.19304 0)
(4.38866 -1.04173 0)
(4.48084 -0.8805 0)
(4.54619 -0.837987 0)
(4.61232 -0.860091 0)
(4.70031 -0.883638 0)
(4.82971 -1.00682 0)
(5.00781 -1.26867 0)
(5.19157 -1.62223 0)
(5.36952 -1.98606 0)
(5.54822 -2.29268 0)
(0.383625 0.00219812 0)
(1.23977 0.00805817 0)
(2.08358 0.00741316 0)
(2.80026 0.0152751 0)
(3.32192 0.0349358 0)
(3.65482 0.0451265 0)
(3.75109 -0.0209329 0)
(3.60072 -0.184 0)
(3.41008 -0.323708 0)
(3.25884 -0.395775 0)
(3.10922 -0.473109 0)
(2.90658 -0.631776 0)
(2.6672 -0.828756 0)
(2.41777 -0.978658 0)
(2.23022 -1.04738 0)
(2.17436 -1.06347 0)
(2.2402 -1.08188 0)
(2.39247 -1.10657 0)
(2.52374 -1.15 0)
(2.60327 -1.21604 0)
(2.6687 -1.27919 0)
(2.78101 -1.29605 0)
(2.97422 -1.29725 0)
(3.14404 -1.41024 0)
(3.20917 -1.62984 0)
(3.17614 -1.79507 0)
(3.12912 -1.81983 0)
(3.10501 -1.79596 0)
(3.10674 -1.81198 0)
(3.17352 -1.8554 0)
(3.3176 -1.90553 0)
(3.49458 -1.9349 0)
(3.69501 -1.90413 0)
(3.94009 -1.81739 0)
(4.20536 -1.66368 0)
(4.42954 -1.47826 0)
(4.5716 -1.35143 0)
(4.65418 -1.20183 0)
(4.71336 -1.02994 0)
(4.77545 -0.981646 0)
(4.87035 -0.997877 0)
(4.99806 -1.01874 0)
(5.163 -1.13256 0)
(5.36187 -1.38916 0)
(5.5578 -1.75106 0)
(5.74981 -2.12105 0)
(5.94475 -2.42666 0)
(0.359423 0.00263838 0)
(1.2084 0.0113472 0)
(2.08533 0.0118794 0)
(2.81387 0.00251087 0)
(3.34796 0.00907005 0)
(3.67152 0.0289422 0)
(3.8343 0.0343517 0)
(3.75737 -0.060742 0)
(3.5229 -0.231417 0)
(3.29841 -0.354907 0)
(3.13483 -0.411583 0)
(2.99263 -0.494559 0)
(2.8276 -0.677129 0)
(2.65016 -0.90369 0)
(2.47638 -1.07569 0)
(2.38363 -1.13962 0)
(2.40411 -1.13946 0)
(2.53473 -1.14165 0)
(2.71355 -1.17843 0)
(2.84982 -1.25142 0)
(2.91463 -1.33656 0)
(2.95537 -1.39144 0)
(3.07379 -1.37007 0)
(3.25957 -1.35638 0)
(3.39776 -1.50042 0)
(3.44121 -1.76993 0)
(3.42515 -1.97187 0)
(3.40919 -2.01313 0)
(3.39936 -1.99771 0)