/*--------------------------------*- C++ -*----------------------------------*\
| =========                 |                                                 |
| \\      /  F ield         | OpenFOAM: The Open Source CFD Toolbox           |
|  \\    /   O peration     | Version:  2412                                  |
|   \\  /    A nd           | Website:  www.openfoam.com                      |
|    \\/     M anipulation  |                                                 |
\*---------------------------------------------------------------------------*/
FoamFile
{
    version     2.0;
    format      ascii;
    arch        "LSB;label=32;scalar=64";
    class       volScalarField;
    location    "0.05";
    object      dpdt;
}
// * * * * * * * * * * * * * * * * * * * * * * * * * * * * * * * * * * * * * //

dimensions      [1 -1 -3 0 0 0 0];

internalField   nonuniform List<scalar> 
12008
(
107589.2366
107589.2361
107589.2343
107589.2304
107589.2241
107589.2155
107589.2045
107589.1912
107589.1754
107589.157
107589.1361
107589.1124
107589.0859
107589.0564
107589.0236
107588.9875
107588.9476
107588.9038
107588.8556
107588.8027
107588.7447
107588.6811
107588.6113
107588.5348
107588.4511
107588.3598
107588.2602
107588.1523
107588.0356
107587.9104
107587.7771
107587.6364
107587.4896
107587.3385
107587.1855
107587.0334
107586.8856
107586.7454
107586.6165
107586.5024
107586.4064
107586.3314
107586.28
107586.2537
107586.2535
107586.2795
107586.3309
107586.4062
107586.5034
107586.6201
107586.7536
107586.9012
107587.0602
107587.2281
107587.4026
107587.5815
107587.763
107587.9457
107588.1281
107588.3093
107588.4883
107588.6646
107588.8375
107589.0066
107589.1718
107589.3329
107589.4896
107589.6421
107589.7902
107589.9341
107590.0738
107590.2093
107590.3409
107590.4685
107590.5924
107590.7128
107590.8299
107590.9438
107591.0547
107591.1627
107591.268
107591.3708
107591.4711
107591.5689
107591.6644
107591.7575
107591.8483
107591.9366
107592.0223
107592.1052
107592.1852
107592.2619
107592.3349
107592.404
107592.4689
107592.5292
107592.5847
107592.6353
107592.6807
107592.721
107592.7564
107592.7869
107592.8132
107592.8356
107592.855
107592.872
107592.8875
107592.9024
107592.9176
107592.934
107592.952
107592.9725
107592.9958
107593.0224
107593.0524
107593.086
107593.1229
107593.163
107593.206
107593.2514
107593.299
107593.3481
107593.3982
107593.4489
107593.4996
107593.5498
107593.599
107593.6467
107593.6926
107593.7362
107593.7771
107593.8151
107593.8497
107593.8809
107593.9083
107593.9319
107593.9515
107593.967
107593.9783
107593.985
107589.2329
107589.2326
107589.2305
107589.2263
107589.2199
107589.2112
107589.2001
107589.1867
107589.1708
107589.1523
107589.1313
107589.1075
107589.081
107589.0514
107589.0186
107588.9825
107588.9428
107588.8991
107588.8511
107588.7986
107588.7411
107588.678
107588.609
107588.5335
107588.4509
107588.3608
107588.2627
107588.1563
107588.0413
107587.9177
107587.7858
107587.6463
107587.5004
107587.3496
107587.1964
107587.0435
107586.8943
107586.7523
107586.621
107586.504
107586.4048
107586.3265
107586.2718
107586.2426
107586.2399
107586.264
107586.3141
107586.3888
107586.486
107586.6031
107586.7374
107586.886
107587.0463
107587.2155
107587.3913
107587.5715
107587.7544
107587.9382
107588.1217
107588.3039
107588.4838
107588.6608
107588.8343
107589.004
107589.1696
107589.331
107589.4881
107589.6407
107589.789
107589.933
107590.0726
107590.2082
107590.3396
107590.4671
107590.5909
107590.7112
107590.828
107590.9417
107591.0524
107591.1603
107591.2654
107591.368
107591.4681
107591.5658
107591.6611
107591.7541
107591.8447
107591.9328
107592.0184
107592.1011
107592.1809
107592.2575
107592.3304
107592.3992
107592.4639
107592.524
107592.5793
107592.6296
107592.6749
107592.715
107592.75
107592.7804
107592.8064
107592.8287
107592.8478
107592.8647
107592.8802
107592.8951
107592.9105
107592.9271
107592.9454
107592.9661
107592.9899
107593.017
107593.0476
107593.0817
107593.1192
107593.1599
107593.2035
107593.2496
107593.2977
107593.3473
107593.3979
107593.4491
107593.5002
107593.5507
107593.6002
107593.6483
107593.6944
107593.7382
107593.7793
107593.8173
107593.8521
107593.8834
107593.9109
107593.9344
107593.954
107593.9693
107593.9804
107593.9869
107589.2283
107589.2283
107589.2262
107589.2219
107589.2154
107589.2067
107589.1955
107589.182
107589.1661
107589.1476
107589.1266
107589.1029
107589.0764
107589.0469
107589.0144
107588.9785
107588.9391
107588.8959
107588.8485
107588.7967
107588.74
107588.678
107588.6102
107588.5361
107588.4551
107588.3667
107588.2704
107588.1657
107588.0523
107587.9301
107587.7991
107587.6599
107587.5133
107587.361
107587.2052
107587.0488
107586.895
107586.7474
107586.6101
107586.4869
107586.3814
107586.2973
107586.2374
107586.2041
107586.1987
107586.2213
107586.2714
107586.3473
107586.4466
107586.5666
107586.7043
107586.8566
107587.0206
107587.1934
107587.3725
107587.556
107587.7417
107587.9281
107588.1137
107588.2977
107588.4791
107588.6574
107588.8319
107589.0024
107589.1686
107589.3305
107589.4878
107589.6407
107589.7891
107589.9331
107590.0727
107590.2082
107590.3394
107590.4666
107590.59
107590.7099
107590.8265
107590.9398
107591.0502
107591.1577
107591.2625
107591.3648
107591.4646
107591.562
107591.6572
107591.75
107591.8405
107591.9286
107592.0141
107592.0969
107592.1768
107592.2534
107592.3263
107592.3952
107592.4598
107592.5199
107592.5752
107592.6253
107592.6703
107592.7099
107592.7445
107592.7742
107592.7994
107592.8208
107592.8391
107592.8551
107592.8696
107592.8837
107592.8986
107592.9147
107592.9327
107592.9534
107592.9773
107593.0048
107593.0359
107593.0707
107593.109
107593.1506
107593.1952
107593.2423
107593.2914
107593.342
107593.3936
107593.4457
107593.4977
107593.549
107593.5993
107593.648
107593.6947
107593.739
107593.7806
107593.8191
107593.8542
107593.8858
107593.9135
107593.9372
107593.9568
107593.9721
107593.9832
107593.9898
107589.2233
107589.2235
107589.2215
107589.2173
107589.2108
107589.202
107589.1909
107589.1774
107589.1616
107589.1432
107589.1223
107589.0988
107589.0725
107589.0434
107589.0113
107588.9759
107588.9371
107588.8947
107588.8483
107588.7977
107588.7424
107588.6819
107588.6159
107588.5437
107588.4647
107588.3785
107588.2843
107588.1816
107588.0698
107587.9487
107587.818
107587.678
107587.5293
107587.3732
107587.2117
107587.0482
107586.886
107586.7293
107586.5823
107586.4491
107586.3341
107586.2412
107586.174
107586.1353
107586.1267
107586.1486
107586.2002
107586.2795
107586.3836
107586.5095
107586.6536
107586.8125
107586.983
107587.1621
107587.3471
107587.5356
107587.7258
107587.916
107588.1049
107588.2915
107588.4751
107588.6551
107588.831
107589.0025
107589.1695
107589.3319
107589.4896
107589.6426
107589.791
107589.9349
107590.0744
107590.2096
107590.3406
107590.4675
107590.5902
107590.7094
107590.8254
107590.9383
107591.0482
107591.1552
107591.2595
107591.3614
107591.4608
107591.558
107591.6529
107591.7456
107591.836
107591.9241
107592.0098
107592.0928
107592.1729
107592.2498
107592.323
107592.3922
107592.4571
107592.5174
107592.5727
107592.6227
107592.6673
107592.7065
107592.7402
107592.7688
107592.7927
107592.8125
107592.829
107592.8432
107592.8559
107592.8684
107592.8818
107592.8967
107592.9137
107592.9339
107592.9576
107592.9852
107593.0168
107593.0524
107593.0917
107593.1346
107593.1805
107593.229
107593.2796
107593.3318
107593.3849
107593.4384
107593.4918
107593.5444
107593.5959
107593.6457
107593.6934
107593.7386
107593.781
107593.8201
107593.8559
107593.8879
107593.916
107593.94
107593.9598
107593.9753
107593.9865
107593.9933
107589.2182
107589.2184
107589.2165
107589.2123
107589.2058
107589.1971
107589.1861
107589.1727
107589.157
107589.1388
107589.1181
107589.0949
107589.0691
107589.0405
107589.009
107588.9744
107588.9366
107588.8952
107588.8502
107588.8011
107588.7475
107588.6891
107588.6253
107588.5556
107588.4793
107588.3957
107588.3042
107588.2039
107588.0942
107587.9743
107587.8438
107587.7023
107587.5498
107587.3876
107587.2181
107587.0443
107586.87
107586.7001
107586.5391
107586.392
107586.2634
107586.1583
107586.081
107586.0351
107586.0227
107586.0445
107586.0992
107586.1843
107586.2961
107586.4311
107586.5851
107586.754
107586.9341
107587.1221
107587.315
107587.5106
107587.7069
107587.9022
107588.0954
107588.2855
107588.4719
107588.654
107588.8316
107589.0044
107589.1722
107589.3352
107589.4932
107589.6463
107589.7947
107589.9384
107590.0775
107590.2123
107590.3428
107590.4693
107590.5915
107590.7097
107590.8248
107590.937
107591.0462
107591.1526
107591.2563
107591.3576
107591.4566
107591.5533
107591.648
107591.7405
107591.8309
107591.9191
107592.005
107592.0884
107592.1689
107592.2465
107592.3203
107592.3899
107592.4553
107592.5159
107592.5715
107592.6215
107592.6658
107592.7042
107592.7368
107592.7638
107592.7858
107592.8033
107592.8172
107592.8287
107592.8386
107592.8486
107592.8597
107592.8725
107592.888
107592.9072
107592.9304
107592.9581
107592.9902
107593.0267
107593.0674
107593.1118
107593.1595
107593.21
107593.2626
107593.3168
107593.372
107593.4275
107593.4827
107593.5371
107593.5903
107593.6416
107593.6907
107593.7371
107593.7805
107593.8207
107593.8572
107593.8899
107593.9186
107593.9431
107593.9632
107593.9789
107593.9902
107593.9972
107589.2128
107589.2131
107589.2112
107589.207
107589.2006
107589.192
107589.1811
107589.1679
107589.1524
107589.1344
107589.1141
107589.0914
107589.0661
107589.0382
107589.0075
107588.9739
107588.9372
107588.8974
107588.854
107588.8068
107588.7554
107588.6995
107588.6384
107588.5717
107588.4986
107588.4183
107588.3301
107588.2329
107588.1257
107588.0077
107587.8774
107587.7332
107587.5759
107587.4066
107587.2263
107587.0384
107586.848
107586.6603
107586.481
107586.3152
107586.1686
107586.0469
107585.9559
107585.9004
107585.8835
107585.9059
107585.9658
107586.0598
107586.1833
107586.3314
107586.4991
107586.6815
107586.8744
107587.074
107587.2774
107587.482
107587.6859
107587.8877
107588.0861
107588.2804
107588.4701
107588.6548
107588.8342
107589.0083
107589.1771
107589.3406
107589.4989
107589.652
107589.8002
107589.9436
107590.0822
107590.2164
107590.3462
107590.4719
107590.5937
107590.7108
107590.8245
107590.9359
107591.0443
107591.1498
107591.2528
107591.3534
107591.4517
107591.548
107591.6423
107591.7346
107591.825
107591.9134
107591.9996
107592.0835
107592.1648
107592.2432
107592.3178
107592.3882
107592.4543
107592.5156
107592.5715
107592.6216
107592.6656
107592.7032
107592.7344
107592.7594
107592.7788
107592.7932
107592.8037
107592.8114
107592.8176
107592.8239
107592.8316
107592.8418
107592.8551
107592.8728
107592.8953
107592.9229
107592.9556
107592.9933
107593.0356
107593.0821
107593.1321
107593.1851
107593.2403
107593.2971
107593.3549
107593.4129
107593.4706
107593.5273
107593.5825
107593.6358
107593.6866
107593.7346
107593.7794
107593.8208
107593.8584
107593.892
107593.9214
107593.9464
107593.967
107593.983
107593.9945
107594.0015
107589.2071
107589.2074
107589.2055
107589.2013
107589.1951
107589.1866
107589.1758
107589.1629
107589.1476
107589.13
107589.1101
107589.088
107589.0634
107589.0363
107589.0066
107588.9742
107588.939
107588.9008
107588.8593
107588.8143
107588.7656
107588.7126
107588.6548
107588.5916
107588.5223
107588.4461
107588.3619
107588.2688
107588.1653
107588.0496
107587.9186
107587.7723
107587.611
107587.4327
107587.2387
107587.0328
107586.8213
107586.6108
107586.4078
107586.2182
107586.0481
107585.9044
107585.7952
107585.7274
107585.7052
107585.7293
107585.7972
107585.904
107586.0437
107586.2097
107586.3956
107586.5956
107586.8049
107587.0193
107587.2356
107587.4511
107587.6642
107587.8734
107588.0779
107588.277
107588.4704
107588.6578
107588.8393
107589.0148
107589.1845
107589.3484
107589.5069
107589.6599
107589.8078
107589.9506
107590.0886
107590.222
107590.3509
107590.4756
107590.5964
107590.7124
107590.8247
107590.935
107591.0423
107591.1468
107591.2488
107591.3485
107591.4461
107591.5418
107591.6356
107591.7277
107591.8181
107591.9066
107591.9933
107592.0779
107592.16
107592.2395
107592.3153
107592.3868
107592.4539
107592.5161
107592.5728
107592.6232
107592.667
107592.7037
107592.7332
107592.7558
107592.7719
107592.7824
107592.7883
107592.7911
107592.7923
107592.7936
107592.7971
107592.8038
107592.8142
107592.8299
107592.8514
107592.8789
107592.9124
107592.9516
107592.996
107593.045
107593.098
107593.1541
107593.2126
107593.2727
107593.3337
107593.3948
107593.4555
107593.515
107593.5728
107593.6284
107593.6814
107593.7313
107593.7778
107593.8207
107593.8595
107593.8942
107593.9245
107593.9503
107593.9714
107593.9878
107593.9995
107594.0066
107589.201
107589.2013
107589.1994
107589.1953
107589.1891
107589.1808
107589.1703
107589.1576
107589.1427
107589.1255
107589.1061
107589.0845
107589.0608
107589.0347
107589.0062
107588.9751
107588.9415
107588.9051
107588.8658
107588.8234
107588.7775
107588.7279
107588.6738
107588.6147
107588.5498
107588.4783
107588.3991
107588.3111
107588.2125
107588.0989
107587.9695
107587.8237
107587.6577
107587.4693
107587.2584
107587.0293
107586.7911
107586.5523
107586.3204
107586.1013
107585.9013
107585.7288
107585.5952
107585.5109
107585.4821
107585.5096
107585.5893
107585.7143
107585.876
107586.0657
107586.2753
107586.4978
107586.7274
107586.9597
107587.1913
107587.4197
107587.6433
107587.861
107588.0722
107588.2764
107588.4737
107588.664
107588.8475
107589.0243
107589.1947
107589.359
107589.5174
107589.6702
107589.8175
107589.9596
107590.0967
107590.2291
107590.3569
107590.4805
107590.6
107590.7145
107590.8253
107590.9341
107591.0402
107591.1433
107591.2441
107591.3428
107591.4394
107591.5343
107591.6275
107591.7193
107591.8096
107591.8984
107591.9855
107592.0709
107592.1542
107592.2351
107592.3123
107592.3851
107592.4537
107592.5173
107592.575
107592.6261
107592.6699
107592.7057
107592.7334
107592.7531
107592.7653
107592.7708
107592.771
107592.7675
107592.7624
107592.7574
107592.7554
107592.7573
107592.7642
107592.7775
107592.7978
107592.8253
107592.8598
107592.901
107592.9481
107593.0004
107593.057
107593.117
107593.1795
107593.2436
107593.3085
107593.3734
107593.4376
107593.5004
107593.5613
107593.6198
107593.6753
107593.7274
107593.776
107593.8205
107593.8609
107593.8968
107593.9281
107593.9547
107593.9765
107593.9933
107594.0052
107594.0124
107589.1945
107589.1948
107589.1929
107589.1889
107589.1828
107589.1746
107589.1644
107589.152
107589.1375
107589.1208
107589.102
107589.081
107589.0581
107589.033
107589.0058
107588.9762
107588.9443
107588.91
107588.873
107588.8332
107588.7903
107588.7442
107588.6944
107588.6401
107588.5804
107588.5148
107588.4423
107588.3599
107588.2651
107588.1576
107588.0334
107587.8884
107587.719
107587.5205
107587.2896
107587.0309
107586.7587
107586.4854
107586.2189
107585.9647
107585.7277
107585.5173
107585.3504
107585.2438
107585.2068
107585.2402
107585.3378
107585.4884
107585.6797
107585.9004
107586.1401
107586.3902
107586.6444
107586.8979
107587.1472
107587.3901
107587.6253
107587.8521
107588.0703
107588.2799
107588.481
107588.6741
107588.8594
107589.0373
107589.2083
107589.3727
107589.5309
107589.6831
107589.8296
107589.9707
107590.1067
107590.2378
107590.3643
107590.4864
107590.6044
107590.7171
107590.826
107590.9332
107591.0377
107591.1393
107591.2386
107591.3358
107591.4312
107591.5251
107591.6175
107591.7088
107591.7989
107591.8878
107591.9755
107592.0618
107592.1464
107592.2289
107592.308
107592.3826
107592.453
107592.5186
107592.578
107592.6302
107592.6743
107592.7095
107592.7353
107592.7517
107592.7591
107592.7585
107592.7516
107592.7404
107592.7272
107592.7145
107592.7053
107592.7012
107592.7038
107592.7142
107592.7333
107592.7609
107592.797
107592.8407
107592.8913
107592.9477
107593.0089
107593.0736
107593.141
107593.2099
107593.2795
107593.3488
107593.4172
107593.4839
107593.5484
107593.61
107593.6684
107593.7232
107593.774
107593.8206
107593.8626
107593.9
107593.9325
107593.96
107593.9824
107593.9997
107594.012
107594.0192
107589.1876
107589.1877
107589.1859
107589.1819
107589.176
107589.168
107589.158
107589.146
107589.1319
107589.1157
107589.0975
107589.0774
107589.0552
107589.0311
107589.0051
107588.9771
107588.947
107588.9147
107588.8802
107588.8432
107588.8038
107588.7614
107588.7158
107588.6667
107588.6131
107588.5539
107588.4873
107588.4124
107588.327
107588.2273
107588.1094
107587.9679
107587.7981
107587.5914
107587.3377
107587.0406
107586.7245
107586.4101
107586.1041
107585.8101
107585.5286
107585.2678
107585.0541
107584.9164
107584.8697
107584.9138
107585.037
107585.2219
107585.452
107585.7127
107585.9903
107586.2744
107586.5584
107586.837
107587.1063
107587.365
107587.6126
107587.8489
107588.0741
107588.2888
107588.4935
107588.689
107588.8757
107589.0544
107589.2256
107589.3898
107589.5474
107589.6987
107589.8442
107589.9841
107590.1187
107590.2483
107590.3731
107590.4933
107590.6096
107590.72
107590.8269
107590.9322
107591.0347
107591.1343
107591.2317
107591.3272
107591.421
107591.5135
107591.6049
107591.6954
107591.7851
107591.8742
107591.9624
107592.0497
107592.1357
107592.22
107592.3014
107592.3783
107592.4511
107592.5193
107592.5811
107592.6352
107592.6802
107592.715
107592.7389
107592.7516
107592.7535
107592.7457
107592.7301
107592.7091
107592.6858
107592.6635
107592.6452
107592.634
107592.6314
107592.6386
107592.6563
107592.6845
107592.7227
107592.7699
107592.825
107592.8865
107592.9533
107593.0238
107593.097
107593.1717
107593.2468
107593.3213
107593.3945
107593.4657
107593.5343
107593.5996
107593.6613
107593.719
107593.7723
107593.8211
107593.865
107593.9039
107593.9377
107593.9663
107593.9895
107594.0073
107594.0199
107594.0272
107589.1801
107589.1802
107589.1783
107589.1744
107589.1686
107589.1607
107589.151
107589.1393
107589.1257
107589.1101
107589.0926
107589.0732
107589.052
107589.0289
107589.0041
107588.9775
107588.9492
107588.9189
107588.8868
107588.8526
107588.8168
107588.7786
107588.7367
107588.6923
107588.6453
107588.5928
107588.5343
107588.4684
107588.393
107588.3042
107588.1965
107588.063
107587.8979
107587.6884
107587.4108
107587.0615
107586.6859
107586.3236
107585.9758
107585.6409
107585.3084
107584.9795
107584.6974
107584.5155
107584.4562
107584.5145
107584.6723
107584.907
107585.1929
107585.507
107585.8329
107586.1591
107586.4771
107586.782
107587.0723
107587.3477
107587.6081
107587.8535
107588.0853
107588.3046
107588.5123
107588.7096
107588.8972
107589.0761
107589.2471
107589.4106
107589.5672
107589.7174
107589.8615
107589.9998
107590.1327
107590.2605
107590.3833
107590.5014
107590.6151
107590.7235
107590.8278
107590.9309
107591.0308
107591.128
107591.2231
107591.3163
107591.4081
107591.4988
107591.5888
107591.6783
107591.7676
107591.8565
107591.9452
107592.0335
107592.121
107592.2071
107592.2915
107592.3717
107592.4475
107592.519
107592.584
107592.6407
107592.6874
107592.7225
107592.7447
107592.7535
107592.749
107592.7325
107592.7061
107592.6731
107592.6372
107592.6028
107592.5736
107592.5535
107592.5445
107592.5484
107592.5649
107592.5943
107592.6357
107592.6875
107592.7483
107592.8164
107592.89
107592.9676
107593.0477
107593.1292
107593.2106
107593.2912
107593.37
107593.4462
107593.5193
107593.5888
107593.6541
107593.715
107593.7712
107593.8223
107593.8683
107593.909
107593.9442
107593.9739
107593.9979
107594.0163
107594.0292
107594.0366
107589.172
107589.172
107589.1701
107589.1662
107589.1605
107589.1528
107589.1433
107589.1319
107589.1189
107589.1038
107589.0869
107589.0682
107589.0478
107589.0258
107589.0022
107588.9771
107588.9503
107588.9218
107588.8922
107588.8601
107588.8261
107588.7919
107588.7562
107588.7166
107588.6738
107588.6282
107588.5785
107588.5231
107588.4597
107588.3849
107588.2921
107588.1718
107588.0191
107587.8183
107587.5196
107587.0972
107586.634
107586.2223
107585.8364
107585.468
107585.0812
107584.6571
107584.2695
107584.0203
107583.9418
107584.0264
107584.2431
107584.5498
107584.9084
107585.2896
107585.6735
107586.0473
107586.4033
107586.7383
107587.0518
107587.3438
107587.6151
107587.8687
107588.1061
107588.3289
107588.5386
107588.7368
107588.9245
107589.103
107589.273
107589.4354
107589.5906
107589.7392
107589.8815
107590.018
107590.1489
107590.2745
107590.395
107590.5109
107590.6208
107590.7267
107590.8288
107590.9289
107591.0256
107591.1198
107591.212
107591.3024
107591.3918
107591.4804
107591.5687
107591.657
107591.7455
107591.8343
107591.9235
107592.0129
107592.102
107592.1903
107592.2777
107592.3618
107592.4414
107592.5173
107592.5866
107592.6472
107592.6965
107592.7325
107592.7534
107592.758
107592.7462
107592.7192
107592.6796
107592.6315
107592.5799
107592.5302
107592.4877
107592.4567
107592.441
107592.4405
107592.4568
107592.4884
107592.5342
107592.5923
107592.6606
107592.7368
107592.8189
107592.9049
107592.9933
107593.0826
107593.1715
107593.2589
107593.344
107593.4259
107593.5041
107593.578
107593.6474
107593.7118
107593.771
107593.8248
107593.873
107593.9155
107593.9522
107593.983
107594.008
107594.027
107594.0401
107594.0476
107589.1632
107589.1631
107589.1612
107589.1573
107589.1516
107589.1441
107589.1348
107589.1236
107589.1109
107589.0966
107589.0803
107589.0623
107589.0427
107589.0215
107588.9989
107588.9753
107588.9502
107588.9224
107588.8934
107588.8656
107588.835
107588.8016
107588.7676
107588.7326
107588.6956
107588.6568
107588.6156
107588.5707
107588.5203
107588.4618
107588.3882
107588.287
107588.1559
107587.9838
107587.6793
107587.166
107586.5654
107586.1142
107585.6962
107585.313
107584.8758
107584.3186
107583.7523
107583.3896
107583.2903
107583.4285
107583.7382
107584.1483
107584.6043
107585.0702
107585.5234
107585.9514
107586.3487
107586.7141
107587.049
107587.3557
107587.6377
107587.8977
107588.1385
107588.363
107588.5734
107588.7712
107588.9581
107589.1353
107589.3038
107589.4643
107589.6176
107589.7642
107589.9044
107590.0386
107590.1671
107590.2903
107590.4081
107590.5207
107590.6277
107590.7296
107590.8293
107590.9255
107591.0186
107591.1091
107591.1978
107591.285
107591.3715
107591.4577
107591.5442
107591.6311
107591.7189
107591.8077
107591.8974
107591.988
107592.0793
107592.1709
107592.2603
107592.3474
107592.4332
107592.5148
107592.5897
107592.6553
107592.7085
107592.7464
107592.7664
107592.7665
107592.7462
107592.7065
107592.6505
107592.5834
107592.5118
107592.443
107592.3841
107592.3405
107592.3159
107592.3119
107592.3293
107592.3645
107592.4167
107592.4832
107592.5609
107592.6473
107592.7398
107592.836
107592.9341
107593.0326
107593.1299
107593.2251
107593.3171
107593.4053
107593.489
107593.5679
107593.6416
107593.7097
107593.7722
107593.8287
107593.8792
107593.9237
107593.962
107593.994
107594.0199
107594.0395
107594.053
107594.0605
107589.1537
107589.1535
107589.1514
107589.1476
107589.142
107589.1346
107589.1253
107589.1143
107589.1016
107589.0877
107589.0725
107589.0554
107589.0366
107589.0162
107588.9937
107588.9696
107588.9455
107588.9214
107588.8942
107588.8649
107588.8352
107588.8044
107588.7727
107588.7403
107588.7071
107588.6734
107588.6391
107588.6034
107588.5647
107588.5222
107588.4697
107588.3918
107588.2943
107588.2165
107587.9866
107587.3288
107586.4011
107585.9244
107585.5153
107585.2011
107584.7457
107583.9908
107583.0996
107582.5561
107582.4487
107582.6946
107583.1539
107583.7119
107584.2963
107584.8659
107585.3986
107585.8851
107586.3239
107586.7177
107587.0713
107587.3899
107587.6787
107587.9421
107588.1844
107588.4087
107588.6176
107588.8136
107588.9984
107589.1733
107589.3394
107589.4975
107589.6484
107589.7924
107589.9301
107590.0617
107590.1875
107590.3079
107590.423
107590.5306
107590.6341
107590.7329
107590.8285
107590.9203
107591.009
107591.0953
107591.18
107591.2638
107591.3474
107591.4313
107591.5159
107591.6017
107591.6889
107591.7777
107591.8681
107591.96
107592.0535
107592.1485
107592.2405
107592.3318
107592.4246
107592.513
107592.5948
107592.6669
107592.7254
107592.7664
107592.786
107592.7814
107592.7511
107592.6958
107592.6191
107592.5276
107592.4303
107592.3373
107592.258
107592.1993
107592.1654
107592.1597
107592.1777
107592.2198
107592.2812
107592.3587
107592.4488
107592.5479
107592.6529
107592.7611
107592.8706
107592.9796
107593.0865
107593.1903
107593.29
107593.3851
107593.4749
107593.559
107593.6373
107593.7094
107593.7752
107593.8346
107593.8876
107593.934
107593.9739
107594.0072
107594.034
107594.0543
107594.0681
107594.0756
107589.1433
107589.143
107589.1409
107589.137
107589.1314
107589.124
107589.1149
107589.1041
107589.0914
107589.0771
107589.0615
107589.0447
107589.0265
107589.0069
107588.9863
107588.9636
107588.9388
107588.9133
107588.887
107588.8588
107588.8295
107588.7989
107588.7675
107588.7357
107588.704
107588.673
107588.6433
107588.6145
107588.5857
107588.5578
107588.5274
107588.4718
107588.3905
107588.5039
107588.574
107587.5617
107585.9841
107585.5978
107585.2654
107585.1929
107584.7645
107583.7044
107582.2748
107581.4192
107581.3357
107581.7978
107582.5004
107583.2645
107584.0117
107584.703
107585.3217
107585.8661
107586.3422
107586.759
107587.1257
107587.4509
107587.7418
107588.0049
107588.245
107588.4663
107588.6719
107588.8644
107589.0456
107589.2171
107589.3799
107589.5349
107589.6828
107589.8239
107589.9586
107590.0872
107590.2099
107590.327
107590.4378
107590.5427
107590.6403
107590.7353
107590.8259
107590.9125
107590.9963
107591.0781
107591.1589
107591.2394
107591.3204
107591.4024
107591.4857
107591.5707
107591.6576
107591.7466
107591.8378
107591.931
107592.0263
107592.1234
107592.2205
107592.3189
107592.4181
107592.514
107592.604
107592.6842
107592.7496
107592.7952
107592.8157
107592.8063
107592.7642
107592.6896
107592.5863
107592.463
107592.3322
107592.2079
107592.1031
107592.0269
107591.984
107591.9756
107591.9989
107592.0515
107592.1257
107592.218
107592.3236
107592.4384
107592.5585
107592.6811
107592.8037
107592.9245
107593.0422
107593.1555
107593.2636
107593.366
107593.4623
107593.552
107593.635
107593.7112
107593.7806
107593.8429
107593.8983
107593.9468
107593.9883
107594.0229
107594.0506
107594.0715
107594.0856
107594.0932
107589.1321
107589.1316
107589.1293
107589.1254
107589.1198
107589.1125
107589.1035
107589.0927
107589.0803
107589.0662
107589.0505
107589.0335
107589.0151
107588.9954
107588.9745
107588.9522
107588.9281
107588.9024
107588.8752
107588.846
107588.8151
107588.7828
107588.7497
107588.7166
107588.6845
107588.6543
107588.627
107588.6027
107588.5796
107588.5604
107588.5463
107588.4941
107588.3634
107588.7258
107589.8417
107588.0284
107586.8696
107585.4154
107585.0562
107585.3569
107584.8645
107583.2594
107581.1582
107579.803
107579.8421
107580.7442
107581.8152
107582.8508
107583.7947
107584.619
107585.3217
107585.9155
107586.4185
107586.8479
107587.2185
107587.5425
107587.8295
107588.0871
107588.3212
107588.5364
107588.7362
107588.9232
107589.0995
107589.2664
107589.4251
107589.5763
107589.7206
107589.8584
107589.9898
107590.1151
107590.2344
107590.3482
107590.453
107590.5532
107590.6471
107590.7363
107590.8209
107590.902
107590.9806
107591.0581
107591.1355
107591.2136
107591.2928
107591.3737
107591.4564
107591.5411
107591.6281
107591.7175
107591.8095
107591.9041
107592.0013
107592.1004
107592.2027
107592.3083
107592.4146
107592.5191
107592.6187
107592.7087
107592.7834
107592.836
107592.8589
107592.8453
107592.7899
107592.6912
107592.5535
107592.3881
107592.2125
107592.0474
107591.9109
107591.8143
107591.7627
107591.7552
107591.7899
107591.8547
107591.9481
107592.06
107592.1854
107592.3194
107592.4577
107592.5968
107592.7344
107592.8687
107592.9981
107593.1218
107593.2389
107593.3491
107593.4521
107593.5476
107593.6356
107593.716
107593.7888
107593.8542
107593.912
107593.9625
107594.0056
107594.0414
107594.07
107594.0915
107594.1059
107594.1134
107589.1199
107589.1192
107589.1168
107589.1128
107589.1072
107589.0998
107589.0908
107589.0801
107589.0678
107589.0539
107589.0384
107589.0215
107589.0031
107588.9832
107588.9618
107588.9387
107588.9135
107588.8862
107588.8567
107588.8249
107588.7911
107588.7559
107588.7202
107588.6857
107588.654
107588.627
107588.6067
107588.5937
107588.5858
107588.5848
107588.589
107588.523
107588.225
107588.5107
107592.0268
107590.284
0
0
107585.5664
107586.2888
107586.3149
107584.0107
107580.3013
107576.6541
107577.7453
107579.6276
107581.1825
107582.5447
107583.7089
107584.6646
107585.4336
107586.0561
107586.5667
107586.9926
107587.3544
107587.6672
107587.9426
107588.189
107588.4127
107588.6185
107588.8099
107588.9895
107589.1593
107589.3206
107589.4744
107589.6212
107589.7615
107589.8956
107590.0234
107590.1451
107590.2604
107590.3692
107590.4711
107590.5636
107590.6525
107590.7352
107590.8135
107590.8888
107590.9628
107591.037
107591.1123
107591.1892
107591.2679
107591.3488
107591.4317
107591.5168
107591.6041
107591.6939
107591.7866
107591.8823
107591.9808
107592.082
107592.1884
107592.3003
107592.414
107592.5278
107592.6383
107592.7406
107592.8276
107592.8907
107592.9195
107592.9034
107592.8336
107592.7055
107592.5229
107592.3005
107592.0641
107591.8452
107591.6691
107591.5501
107591.4922
107591.4917
107591.5409
107591.6279
107591.7479
107591.8848
107592.0348
107592.1921
107592.3516
107592.5099
107592.6644
107592.8134
107592.9557
107593.0905
107593.2171
107593.3354
107593.4453
107593.5467
107593.6396
107593.7242
107593.8006
107593.8688
107593.9291
107593.9815
107594.0261
107594.0631
107594.0926
107594.1146
107594.1292
107594.1367
107589.1066
107589.1058
107589.1033
107589.0992
107589.0934
107589.086
107589.0769
107589.0662
107589.0538
107589.0398
107589.0242
107589.0071
107588.9884
107588.9679
107588.9454
107588.9208
107588.8937
107588.8638
107588.8311
107588.7958
107588.7584
107588.7204
107588.6836
107588.6505
107588.624
107588.6073
107588.6037
107588.6161
107588.6439
107588.6914
107588.7749
107588.835
107588.9808
107591.3724
107593.6936
0
0
0
0
0
0
107587.1605
107583.4056
107576.418
107574.6892
107578.8315
107580.8283
107582.4904
107583.8654
107584.9043
107585.6953
107586.3081
107586.7969
107587.1973
107587.5342
107587.8245
107588.08
107588.3091
107588.518
107588.7111
107588.8917
107589.0622
107589.2242
107589.3789
107589.5271
107589.669
107589.805
107589.9351
107590.0592
107590.177
107590.2878
107590.3915
107590.4874
107590.5749
107590.6564
107590.732