/*--------------------------------*- C++ -*----------------------------------*\
| =========                 |                                                 |
| \\      /  F ield         | OpenFOAM: The Open Source CFD Toolbox           |
|  \\    /   O peration     | Version:  2412                                  |
|   \\  /    A nd           | Website:  www.openfoam.com                      |
|    \\/     M anipulation  |                                                 |
\*---------------------------------------------------------------------------*/
FoamFile
{
    version     2.0;
    format      ascii;
    arch        "LSB;label=32;scalar=64";
    class       volScalarField;
    location    "0.05";
    object      rho;
}
// * * * * * * * * * * * * * * * * * * * * * * * * * * * * * * * * * * * * * //

dimensions      [1 -3 0 0 0 0 0];

internalField   nonuniform List<scalar> 
12008
(
2.173850362
2.173841161
2.173822621
2.173792878
2.173749574
2.173689478
2.173608439
2.173501348
2.173362136
2.173183814
2.172958587
2.172678055
2.172333519
2.171916387
2.171418691
2.170833701
2.170156599
2.169385177
2.168520505
2.167567492
2.166535288
2.165437454
2.164291858
2.163120291
2.161947786
2.1608017
2.159710612
2.158703111
2.157806566
2.157045955
2.156442858
2.156014676
2.155776479
2.155729893
2.155876282
2.156212121
2.156727238
2.157406215
2.158229191
2.159172777
2.160211088
2.161316869
2.162462665
2.163621863
2.164769676
2.165883961
2.166945825
2.167940029
2.168855169
2.169683654
2.170421505
2.171068004
2.171625232
2.172097531
2.17249094
2.172812621
2.17307032
2.173271885
2.173424856
2.173536147
2.173611819
2.173656928
2.17367553
2.173670734
2.1736447
2.173598875
2.173534288
2.173451703
2.173351842
2.173235585
2.17310414
2.172959141
2.172802671
2.172637208
2.172465489
2.172290312
2.172114307
2.171939702
2.171768147
2.17160061
2.171437399
2.171278304
2.17112286
2.170970679
2.170821822
2.170677123
2.170538419
2.170408651
2.170291785
2.170192581
2.170116232
2.170068322
2.170053073
2.170073697
2.170132689
2.170230747
2.170366808
2.170538061
2.170740136
2.170967398
2.17121333
2.171470946
2.171733207
2.171993409
2.172245517
2.172484417
2.17270608
2.172907647
2.17308741
2.173244732
2.17337991
2.173493995
2.173588598
2.173665702
2.173727485
2.173776168
2.173813901
2.173842671
2.173864258
2.173880197
2.173891782
2.17390007
2.173905909
2.173909958
2.173912723
2.173914581
2.173915809
2.173916608
2.173917117
2.173917434
2.173917627
2.17391774
2.173917805
2.173917841
2.173917866
2.17391789
2.173917927
2.173917987
2.17391808
2.173918192
2.173842904
2.173832849
2.173812476
2.173779829
2.17373235
2.173666535
2.173577888
2.173460876
2.173308931
2.173114491
2.172869135
2.172563795
2.172189087
2.171735759
2.171195245
2.17056033
2.169825871
2.168989544
2.16805255
2.167020207
2.165902364
2.164713561
2.163472908
2.162203646
2.160932424
2.159688315
2.15850166
2.157402806
2.156420823
2.155582305
2.154910289
2.154423355
2.154139468
2.154060595
2.15418704
2.154517827
2.15504308
2.155747442
2.156610773
2.15760901
2.158715191
2.159900603
2.161135938
2.162392491
2.163643208
2.164863593
2.166032417
2.167132225
2.168149597
2.169075202
2.169903643
2.170633131
2.17126503
2.171803311
2.172253952
2.172624326
2.172922609
2.173157246
2.173336475
2.173467959
2.173558505
2.173613896
2.173638832
2.173636964
2.17361101
2.173562688
2.173493405
2.173404207
2.173296049
2.17317002
2.1730275
2.17287026
2.172700465
2.172520589
2.17233326
2.172141031
2.171946145
2.171750311
2.171554562
2.171359215
2.171163983
2.170968223
2.170771301
2.17057302
2.170374041
2.170176233
2.169982868
2.169798638
2.169629473
2.169482168
2.169363883
2.169281798
2.169242731
2.169249488
2.169305591
2.169411931
2.16956713
2.169767583
2.170007752
2.170280553
2.170577827
2.170890845
2.17121082
2.171529373
2.171838937
2.172133066
2.172406651
2.172656008
2.172878885
2.173074355
2.173242656
2.17338498
2.173503229
2.173599789
2.173677304
2.173738494
2.173786001
2.173822286
2.173849554
2.17386972
2.173884399
2.173894917
2.173902336
2.173907488
2.173911011
2.173913382
2.173914953
2.173915975
2.173916629
2.173917039
2.173917289
2.173917437
2.173917521
2.173917569
2.173917597
2.173917621
2.173917652
2.173917706
2.173917815
2.173918083
2.17382832
2.173816464
2.173792381
2.173753854
2.173697928
2.173620561
2.173516574
2.173379607
2.173202121
2.172975459
2.172689997
2.172335405
2.171901028
2.171376401
2.170751885
2.170019409
2.169173278
2.168210996
2.167134032
2.16594845
2.164665334
2.163300934
2.161876498
2.160417779
2.158954231
2.157517955
2.156142472
2.154861392
2.153707079
2.152709388
2.151894528
2.151284079
2.15089811
2.150746193
2.150823336
2.15113411
2.151669722
2.152415328
2.153350544
2.154450211
2.155685405
2.157024612
2.158435
2.159883712
2.161339102
2.162771853
2.164155912
2.1654692
2.166694074
2.167817519
2.168831109
2.169730736
2.170516174
2.171190508
2.17175948
2.172230794
2.172613427
2.172916972
2.173151051
2.173324829
2.173446635
2.173523709
2.173562079
2.173566561
2.173541042
2.173487799
2.173409041
2.173306423
2.173181406
2.173035509
2.172870463
2.172688291
2.172491267
2.17228178
2.172062119
2.171834205
2.171599348
2.171358057
2.17110999
2.17085407
2.17058879
2.170312689
2.170024928
2.169725894
2.169417723
2.169104652
2.168793129
2.168491646
2.168210315
2.167960216
2.167752611
2.167598102
2.167507807
2.16748586
2.167535712
2.167659585
2.167855382
2.168117832
2.168438954
2.168808616
2.169215205
2.169646317
2.170089456
2.170532673
2.170965126
2.171377517
2.171762391
2.172114291
2.172429763
2.172707238
2.172946809
2.173149946
2.173319163
2.173457693
2.173569175
2.17365739
2.17372604
2.173778593
2.173818174
2.173847508
2.173868904
2.173884266
2.173895122
2.173902677
2.173907852
2.173911343
2.173913659
2.173915172
2.173916143
2.173916754
2.17391713
2.173917354
2.173917484
2.173917556
2.173917595
2.173917618
2.173917638
2.173917663
2.173917715
2.173917992
2.173805735
2.17379113
2.173761384
2.173713896
2.173645121
2.173550226
2.173423034
2.173255985
2.173040145
2.172765292
2.172420109
2.171992506
2.171470085
2.170840739
2.170093405
2.169218904
2.168210857
2.16706659
2.165787962
2.164382037
2.162861507
2.161244816
2.159555948
2.157823874
2.156081687
2.15436549
2.152713111
2.15116271
2.149751381
2.148513803
2.147481017
2.146679386
2.146130226
2.145856386
2.145846909
2.146112204
2.146646083
2.147434982
2.148458768
2.149691336
2.15110157
2.152654514
2.154312697
2.156037552
2.157790884
2.159536286
2.161240416
2.162874055
2.164412887
2.165837959
2.167135834
2.168298444
2.169322707
2.170209943
2.170965152
2.171596213
2.172113047
2.172526791
2.172849035
2.173091155
2.173263772
2.173376364
2.173437042
2.173452484
2.173428334
2.173368081
2.17327499
2.173151811
2.173000837
2.172824264
2.172624345
2.172403409
2.172163758
2.171907433
2.171635923
2.171349853
2.171048747
2.170730946
2.170393744
2.170033788
2.169647731
2.169233069
2.16878905
2.168317515
2.167823518
2.167315631
2.166805837
2.166309038
2.165842209
2.165423303
2.165070042
2.164798682
2.164625178
2.164558899
2.164599923
2.16475368
2.165016795
2.165381273
2.165835213
2.16636364
2.166949445
2.16757436
2.168219936
2.168868456
2.169503736
2.170111775
2.170681215
2.171203594
2.171673389
2.172087867
2.17244679
2.172752003
2.173006963
2.173216256
2.173385131
2.173519105
2.173623628
2.173703836
2.173764389
2.173809369
2.173842251
2.173865908
2.173882664
2.173894347
2.173902366
2.173907786
2.173911392
2.173913753
2.173915272
2.173916233
2.173916828
2.173917186
2.173917396
2.173917512
2.173917574
2.173917604
2.173917618
2.173917627
2.173917656
2.173917928
2.173774394
2.173756045
2.173718598
2.173658946
2.173572778
2.173454236
2.173295862
2.173088562
2.172821639
2.172482913
2.172058976
2.171535595
2.170898273
2.170132974
2.169226991
2.168169907
2.166954613
2.165578295
2.164043319
2.162357914
2.160536601
2.158600286
2.15657602
2.154496413
2.152398756
2.150323877
2.148314835
2.146415468
2.144668898
2.143116032
2.141794159
2.140735659
2.139966817
2.139513943
2.139378428
2.139564154
2.140071951
2.14089018
2.14199985
2.143374764
2.144982433
2.14678507
2.148740762
2.150804866
2.152931618
2.155075883
2.157194872
2.159249715
2.161206738
2.163038371
2.164723642
2.166248275
2.16760444
2.168790204
2.169808763
2.170667529
2.171377114
2.171950295
2.172401011
2.172743443
2.172991245
2.173156945
2.173251566
2.17328445
2.173263673
2.173194885
2.173082571
2.172931253
2.172744442
2.172525288
2.17227669
2.172001226
2.171700936
2.17137696
2.171029154
2.170655749
2.170253208
2.169816355
2.169338868
2.16881416
2.168236574
2.167602748
2.16691295
2.166172167
2.165390757
2.164584535
2.163774262
2.162984577
2.162242524
2.161575832
2.161011143
2.160572343
2.160281584
2.160155834
2.160188454
2.160390012
2.160755043
2.161271543
2.161922043
2.162684771
2.163534929
2.164446013
2.16539114
2.166344319
2.167281597
2.168182023
2.16902836
2.169807517
2.170510675
2.171133136
2.171673932
2.172135266
2.172521834
2.172840112
2.173097673
2.173302581
2.173462882
2.17358622
2.173679571
2.173749087
2.173800025
2.17383676
2.173862835
2.173881056
2.173893589
2.173902078
2.173907738
2.173911452
2.17391385
2.173915372
2.173916319
2.173916894
2.173917234
2.173917426
2.173917528
2.173917576
2.173917594
2.173917598
2.173917618
2.173917885
2.173733387
2.173710255
2.173662984
2.173587855
2.173479634
2.173331231
2.173133662
2.172876026
2.172545567
2.172127849
2.171607084
2.170966635
2.170189702
2.16926017
2.168163604
2.166888326
2.16542652
2.163775278
2.161937512
2.159922645
2.15774702
2.155433996
2.153013719
2.150522572
2.148002357
2.145499216
2.143062335
2.140742444
2.138590145
2.136654144
2.134979484
2.133605859
2.132566027
2.131886939
2.131584348
2.131656507
2.132108216
2.132930302
2.1341057
2.135609176
2.137408699
2.13946592
2.141736686
2.144171937
2.146719132
2.14932415
2.151933492
2.154496512
2.156967454
2.159307065
2.161483701
2.163473867
2.165262257
2.166841362
2.168210717
2.169375905
2.170347374
2.171139154
2.171767561
2.172249959
2.172603664
2.172845063
2.172988987
2.173048367
2.173034479
2.172956438
2.172820038
2.172632447
2.172398867
2.172123674
2.171810445
2.171461742
2.171078721
2.170660621
2.170204289
2.169703905
2.169151057
2.168535307
2.167845298
2.16707039
2.166202641
2.165238852
2.164182366
2.163044318
2.16184409
2.160608898
2.159372522
2.158173364
2.157052076
2.156049047
2.155202005
2.154543907
2.154104667
2.153909076
2.153940263
2.154215935
2.154727333
2.155456967
2.156380122
2.157466362
2.158681129
2.159987394
2.161347359
2.162724129
2.164083298
2.165394334
2.166631679
2.167775478
2.168811894
2.169733004
2.170536354
2.171224221
2.171802689
2.172280625
2.172668688
2.17297842
2.173221481
2.173409058
2.173551442
2.173657765
2.173735883
2.173792363
2.173832553
2.173860703
2.173880112
2.173893286
2.17390209
2.173907882
2.173911631
2.173914017
2.173915508
2.173916421
2.173916965
2.173917277
2.173917447
2.17391753
2.173917564
2.173917571
2.17391759
2.173917856
2.173681739
2.17365275
2.173593476
2.173499496
2.17336452
2.173180066
2.172935434
2.172617714
2.172211886
2.171701068
2.171066928
2.170290309
2.169352034
2.168233886
2.166919713
2.16539659
2.163655979
2.161694791
2.159516287
2.157130758
2.154555937
2.151817149
2.148947198
2.14598601
2.142980032
2.139981367
2.137046602
2.134235247
2.131607775
2.129223325
2.127137243
2.125398526
2.124047417
2.12311378
2.122616677
2.122558126
2.122935981
2.123743083
2.124962913
2.126570211
2.128535218
2.130822676
2.133390823
2.13619085
2.139167275
2.142259424
2.145403841
2.148537256
2.151599656
2.154537013
2.157303383
2.159862264
2.1621872
2.164261747
2.166078897
2.167640085
2.168953878
2.170034463
2.17090001
2.171571055
2.172068986
2.172414763
2.17262795
2.172726092
2.172724537
2.172637564
2.172472271
2.172239577
2.171946899
2.17160007
2.171203192
2.170758202
2.170264253
2.169717045
2.169108345
2.168425931
2.167654177
2.166775375
2.165771848
2.164628696
2.163336812
2.161895693
2.160315594
2.158618636
2.156838651
2.155019756
2.153213859
2.151477448
2.149868084
2.148441
2.147246123
2.146325674
2.145718986
2.145454426
2.145502638
2.145889948
2.146602609
2.147616142
2.148897218
2.150405403
2.152094927
2.153916555
2.155819568
2.157753827
2.15967183
2.161530644
2.163293537
2.164931196
2.166422392
2.167754078
2.168920948
2.169924594
2.170772284
2.171475573
2.172048891
2.17250823
2.172870012
2.173150186
2.173363566
2.173523414
2.173641215
2.173726634
2.173787586
2.17383039
2.173859979
2.173880113
2.1738936
2.173902493
2.173908265
2.17391195
2.173914261
2.173915683
2.173916538
2.173917036
2.173917313
2.173917456
2.17391752
2.173917542
2.173917566
2.173917834
2.173618506
2.173582579
2.173509115
2.173392936
2.173226601
2.173000123
2.172700969
2.172314105
2.171822149
2.171205694
2.170443831
2.169514877
2.1683973
2.167070806
2.165517501
2.163723097
2.161678043
2.159378551
2.156827446
2.154034829
2.151018564
2.14780462
2.144427298
2.14092934
2.137361876
2.133784038
2.130262102
2.126867895
2.123676372
2.12076242
2.118197069
2.116043279
2.114351652
2.113157147
2.112477551
2.112313234
2.112643026
2.113461397
2.114743083
2.116454367
2.118566967
2.121051874
2.123876189
2.126999674
2.130372367
2.133934135
2.137616326
2.141345157
2.145046026
2.148647864
2.152086852
2.155309158
2.158272598
2.160947326
2.163315699
2.165371483
2.167118537
2.168569121
2.169741938
2.170660076
2.171348996
2.17183473
2.172142424
2.1722953
2.172314023
2.172219391
2.17202056
2.171733017
2.17136705
2.170930041
2.17042614
2.169855525
2.169213514
2.168489804
2.167668169
2.166726964
2.165640653
2.164382395
2.162927675
2.161258567
2.159367942
2.157262936
2.154967069
2.152520599
2.14997902
2.147409912
2.144888638
2.142493491
2.140300929
2.138381394
2.136796028
2.135594315
2.134826934
2.13451311
2.134613881
2.135163503
2.136141107
2.137514018
2.139239752
2.141267673
2.143540651
2.145996871
2.148571874
2.151200868
2.153821226
2.156375006
2.158811296
2.161088134
2.163173811
2.165047398
2.166698517
2.168126501
2.169338947
2.170349906
2.17117797
2.17184442
2.172371585
2.172781503
2.173094908
2.173330549
2.173504815
2.173631596
2.173722346
2.173786268
2.17383058
2.173860814
2.173881121
2.173894545
2.173903281
2.173908873
2.173912394
2.173914569
2.173915886
2.173916661
2.173917102
2.173917339
2.173917455
2.173917503
2.17391754
2.173917813
2.173542883
2.173498959
2.173409191
2.173267608
2.173065577
2.17279156
2.172431151
2.171967168
2.171379867
2.170647348
2.169746164
2.168652152
2.167341429
2.165791513
2.163982482
2.1618981
2.15952684
2.156862789
2.153906413
2.150665271
2.147154732
2.143398804
2.1394311
2.135295898
2.131049127
2.12675891
2.12250529
2.118378675
2.114476738
2.110899897
2.107745584
2.105101139
2.103035803
2.101593943
2.100791639
2.100617406
2.101016076
2.101979803
2.103445768
2.10535469
2.107669219
2.11036379
2.113419351
2.116815333
2.12052164
2.124493076
2.128667692
2.132969181
2.137312225
2.141609018
2.145775491
2.149736331
2.1534285
2.156803279
2.159827043
2.162480999
2.164760111
2.166671374
2.168231607
2.169464961
2.17040033
2.171068908
2.17150208
2.171729792
2.171779459
2.171679273
2.1714426
2.171089162
2.170633181
2.170083359
2.169442886
2.168708276
2.167868244
2.166903024
2.165784649
2.164478569
2.162946804
2.161152475
2.159065575
2.156669063
2.153964166
2.150974004
2.147744817
2.144344514
2.140858759
2.137385218
2.134026888
2.130885428
2.128055324
2.125619403
2.12364585
2.122186457
2.1213054
2.120987029
2.121197666
2.121973287
2.123283675
2.125087612
2.127334289
2.129964395
2.132911233
2.136102058
2.13945982
2.142905421
2.14636045
2.149750257
2.153007096
2.156072997
2.158902034
2.161461698
2.163733194
2.16571087
2.167400731
2.168818269
2.169985971
2.170930821
2.171681988
2.172268874
2.172719598
2.173059924
2.173312614
2.173497143
2.1736297
2.173723384
2.173788534
2.173833121
2.173863153
2.173883063
2.173896053
2.173904394
2.173909661
2.17391293
2.173914918
2.173916101
2.173916783
2.17391716
2.173917355
2.173917446
2.173917505
2.173917788
2.173454311
2.173401401
2.173293368
2.173123457
2.172881852
2.172555484
2.17212811
2.171580456
2.170890491
2.170033891
2.168984712
2.167716253
2.166202047
2.164416907
2.162337934
2.159945428
2.157223681
2.154161679
2.150753835
2.147000909
2.142911309
2.138502911
2.133805416
2.128863045
2.123737199
2.118508431
2.11327696
2.10816113
2.103293618
2.09881548
2.094868138
2.091582227
2.089063329
2.087378519
2.086547904
2.086538431
2.087245693
2.08867146
2.090637027
2.093033771
2.095783691
2.09884511
2.10220745
2.105878525
2.10986749
2.114168375
2.118749293
2.123549928
2.128486341
2.133459944
2.138367394
2.14310933
2.147597033
2.151756881
2.155532823
2.158887237
2.16180049
2.164269471
2.166305332
2.167930624
2.169176124
2.170077637
2.170673069
2.170999998
2.171093884
2.170991447
2.170712489
2.170280386
2.169714194
2.169023228
2.168207913
2.167258165
2.166152171
2.164856229
2.163326285
2.161511571
2.159360285
2.15682694
2.153880861
2.150514049
2.146746969
2.142631171
2.138248138
2.133704486
2.129124332
2.124640126
2.120383358
2.116476399
2.113026312
2.110121033
2.107827849
2.106193945
2.105295741
2.105044524
2.105445898
2.106520777
2.108228429
2.110520221
2.113339593
2.116622098
2.120295526
2.124280321
2.128490558
2.132835679
2.137223082
2.141561495
2.145764848
2.149756266
2.153471652
2.156862378
2.159896684
2.162559762
2.164852634
2.166789832
2.168396378
2.169704542
2.170750705
2.171572603
2.17220709
2.172688496
2.173047566
2.173310901
2.173500827
2.173635561
2.173729591
2.173794158
2.173837784
2.173866794
2.173885777
2.173898002
2.173905746
2.173910569
2.173913517
2.173915282
2.173916313
2.173916894
2.173917206
2.173917362
2.173917454
2.173917752
2.173352586
2.173289811
2.173161792
2.172961039
2.172676613
2.172293984
2.171795166
2.171158891
2.170360912
2.169374491
2.168171051
2.166720971
2.164994421
2.162962162
2.160596209
2.157870365
2.154760656
2.151245855
2.147308346
2.142935671
2.138123049
2.132876987
2.127219896
2.121195174
2.11487195
2.1083486
2.101754015
2.095245775
2.08900553
2.083232426
2.078134042
2.073911265
2.070735668
2.068726187
2.067934239
2.068265013
2.069670399
2.072061678
2.075115355
2.078601784
2.082340608
2.086221766
2.090209105
2.094330325
2.0986508
2.10323807
2.108130155
2.113318457
2.118747084
2.124323326
2.129932563
2.135452849
2.140766831
2.145770343
2.15037789
2.154525559
2.158171912
2.161297269
2.163901715
2.166002091
2.167628306
2.168819325
2.169619255
2.17007387
2.170227808
2.17012738
2.169801202
2.16927519
2.168573775
2.167705395
2.166664803
2.165431079
2.163966742
2.162218904
2.160123192
2.157610659
2.154617117
2.151094257
2.147020996
2.142412349
2.137324191
2.131852818
2.12612923
2.120309094
2.114560216
2.109049629
2.103932228
2.099342223
2.095388007
2.092150325
2.089683151
2.088031953
2.087253745
2.087168082
2.08786132
2.089311067
2.09146795
2.094278819
2.097685527
2.101623748
2.106021824
2.110799878
2.115869517
2.121134483
2.12649251
2.131838478
2.137068696
2.142085918
2.146804488
2.15115484
2.155086689
2.158570443
2.161596982
2.164175706
2.166331215
2.168099338
2.169523051
2.170648711
2.17152286
2.172189778
2.17268978
2.173058237
2.173325172
2.173515333
2.173648565
2.173740386
2.173802644
2.173844177
2.173871442
2.173889052
2.173900243
2.173907237
2.173911531
2.173914116
2.173915639
2.17391651
2.173916989
2.173917239
2.173917381
2.1739177
2.173237949
2.173164577
2.173015169
2.172781575
2.172451822
2.172010024
2.171436549
2.17070819
2.169798449
2.168677946
2.167314928
2.165675821
2.163725702
2.161428614
2.158747683
2.155645115
2.152082276
2.148020245
2.143421327
2.13825201
2.132487758
2.126119502
2.119161303
2.111658212
2.103692963
2.095390012
2.086915954
2.078476445
2.070310981
2.062687713
2.055897303
2.050237123
2.04598101
2.043345615
2.042474669
2.043208588
2.045665235
2.049655965
2.054640772
2.060184237
2.065908288
2.071532898
2.076903205
2.08200832
2.086960915
2.091937406
2.097105291
2.102569681
2.108353547
2.114405178
2.120619222
2.126860402
2.132984103
2.138851941
2.144342369
2.14935715
2.15382461
2.157700447
2.160966564
2.163628318
2.165710527
2.167252689
2.168303945
2.168918276
2.169150292
2.16905667
2.168677237
2.168038493
2.167170152
2.166077126
2.164744167
2.163133845
2.161186857
2.15882585
2.15596338
2.15251364
2.148406709
2.143604019
2.138111625
2.131988156
2.125345798
2.118343776
2.111175398
2.104051101
2.097180627
2.09075725
2.084946085
2.079877315
2.075644067
2.072304164
2.069884918
2.068449792
2.067915727
2.068146101
2.069238051
2.071130576
2.073768065
2.077096538
2.081061138
2.085603747
2.090660486
2.096159291
2.102017917
2.108142905
2.114430003
2.120766335
2.127034407
2.133117733
2.138907439
2.14430892
2.149247476
2.153672
2.157556376
2.160898684
2.163718135
2.166050594
2.167943546
2.169451139
2.170629797
2.171534658
2.172216984
2.172722499
2.173090557
2.173353973
2.173539328
2.173667587
2.173754878
2.173813319
2.17385181
2.173876753
2.173892654
2.173902624
2.173908769
2.173912488
2.173914692
2.173915967
2.173916681
2.173917064
2.173917275
2.173917624
2.173111156
2.173026636
2.172854797
2.172586923
2.172210098
2.171707162
2.171056857
2.170233941
2.169209344
2.167950351
2.166420781
2.16458105
2.162388019
2.159794583
2.156749075
2.153194726
2.14906968
2.144308221
2.138843972
2.132615631
2.12557542
2.117699704
2.109000256
2.099533969
2.089408949
2.078786168
2.067876398
2.056933666
2.046249025
2.036149871
2.027003589
2.019208493
2.013162803
2.009227134
2.007732494
2.008603513
2.012091766
2.018177059
2.0259817
2.034786705
2.043923728
2.052798432
2.060953736
2.068175427
2.074533691
2.080319672
2.085905164
2.091606609
2.097613304
2.103978871
2.110648273
2.117495379
2.124357649
2.131063169
2.137449693
2.143377001
2.148734142
2.153442882
2.157458224
2.160766523
2.163381627
2.16533952
2.166692106
2.167500796
2.167830407
2.16774826
2.16730746
2.166532026
2.165455825
2.164076058
2.162361485
2.160251188
2.157657604
2.154475094
2.150594081
2.145919205
2.140389611
2.133997939
2.126802983
2.118933194
2.110579802
2.101980549
2.093397139
2.085090867
2.077300842
2.070228016
2.06402636
2.058800728
2.054609751
2.051471847
2.049396703
2.048414353
2.04825666
2.048981482
2.050573486
2.052961561
2.056086981
2.059898458
2.064348887
2.069392095
2.074979177
2.081054492
2.087551708
2.094390586
2.101475264
2.10869455
2.115924648
2.123034517
2.12989342
2.136379662
2.142389128
2.147842168
2.152687699
2.156904411
2.160498995
2.163501687
2.165960476
2.167934917
2.169490318
2.170692781
2.171605379
2.17228553
2.172783468
2.173141655
2.173394889
2.173570888
2.173691159
2.173771987
2.173825416
2.173860156
2.173882376
2.173896355
2.173905003
2.173910258
2.173913391
2.173915218
2.173916253
2.173916818
2.173917126
2.173917517
2.172973521
2.172877485
2.172682542
2.172379478
2.171954484
2.171389101
2.170660283
2.169740346
2.168596828
2.167192254
2.165483719
2.16342218
2.160951423
2.158006754
2.15451372
2.150387415
2.145533245
2.139850146
2.133237236
2.125604423
2.116886312
2.107057384
2.096145174
2.084238523
2.071488866
2.058104765
2.044341264
2.030486992
2.016855789
2.003792844
1.991694666
1.98101563
1.972249359
1.965898773
1.962555521
1.962688026
1.966393171
1.974480833
1.985597282
1.99868392
2.012794738
2.026891167
2.039958508
2.051250738
2.060525129
2.068088569
2.074579429
2.080662211
2.086831192
2.093352949
2.100294643
2.107581978
2.115056386
2.122520542
2.129770922
2.136619515
2.142907403
2.14851248
2.153352849
2.15738674
2.160609457
2.163047846
2.16475298
2.16579189
2.166239024
2.166171894
2.165658118
2.1647148
2.163377309
2.161629091
2.159415274
2.156643797
2.153193632
2.148930912
2.143731545
2.137507305
2.130231851
2.121960012
2.112835392
2.103084097
2.092995096
2.082890981
2.073095166
2.063902049
2.055555111
2.048235242
2.042058789
2.037082911
2.033314971
2.030723862
2.029343153
2.028935022
2.029390509
2.030753783
2.032932308
2.035850866
2.039450196
2.043683971
2.04851584
2.053915889
2.059856123
2.06630507
2.073221803
2.080550274
2.088214969
2.096118464
2.10414168
2.112147752
2.119989449
2.127519365
2.134601368
2.141121289
2.146994957
2.152172491
2.15663898
2.160411151
2.163531316
2.166060114
2.168069168
2.169634457
2.170830917
2.171728485
2.172389566
2.172867757
2.17320757
2.173444863
2.173607736
2.173717643
2.173790571
2.173838161
2.173868705
2.173887987
2.173899957
2.17390726
2.173911635
2.173914202
2.17391567
2.17391648
2.173916919
2.173917367
2.172826904
2.172719156
2.172500747
2.172161978
2.171688078
2.171059066
2.170249623
2.169228709
2.167958927
2.166395602
2.164485472
2.162164955
2.159358059
2.155974248
2.15190693
2.147033602
2.14121902
2.13432277
2.12621207
2.11677929
2.105961729
2.093759536
2.08024684
2.065572732
2.04995169
2.033646189
2.016945583
2.000145396
1.983535451
1.967411708
1.952113006
1.938046086
1.925691226
1.915583467
1.908491609
1.905825573
1.908007984
1.916951993
1.931009426
1.948593189
1.968769884
1.989970368
2.01052535
2.028705699
2.043361166
2.054460719
2.062887337
2.069815898
2.076247128
2.082826096
2.08985609
2.097385033
2.105297723
2.113390345
2.121423978
2.129160621
2.136386369
2.142925624
2.148648968
2.153476131
2.157374739
2.160355273
2.162462932
2.163767303
2.164350801
2.164299731
2.163695955
2.162543635
2.160874996
2.158651681
2.155786356
2.15214889
2.147583307
2.141934775
2.135082635
2.12697485
2.117656149
2.107281827
2.096113652
2.084497471
2.072826531
2.061498341
2.050874297
2.041249652
2.032837584
2.025767001
2.020090792
2.015800281
2.012840449
2.011216464
2.010686434
2.011046773
2.012342523
2.014456408
2.017287287
2.020755337
2.024800914
2.029382979
2.034476915
2.040071164
2.046162281
2.052748484
2.059821891
2.067360447
2.075320841
2.08363271
2.09219528
2.100878329
2.109527939
2.117976881
2.126058278
2.1336202
2.140538518
2.146725681
2.152134942
2.156759763
2.16062844
2.163796254
2.1663367
2.168333025
2.169870942
2.17103295
2.171894427
2.172521335
2.172969298
2.173283714
2.17350054
2.173647494
2.1737454
2.173809534
2.173850845
2.173877015
2.173893317
2.1739033
2.173909307
2.17391285
2.173914891
2.173916028
2.173916641
2.173917164
2.172673651
2.172554116
2.172312066
2.171937213
2.171413555
2.170719048
2.169825131
2.168695801
2.16728623
2.165540865
2.163390972
2.160751709
2.157519075
2.153567477
2.148749152
2.142897133
2.135833573
2.127384691
2.117402116
2.105787983
2.092518517
2.077659548
2.061368424
2.043880624
2.025484342
2.006489668
1.987198566
1.967879106
1.948750394
1.929995872
1.911809459
1.894429516
1.878161716
1.863387051
1.850673633
1.841416595
1.837951092
1.847385272
1.862176285
1.88332671
1.909831678
1.938788786
1.968941076
1.997356245
2.020840393
2.038171444
2.050261213
2.05894232
2.065983756
2.072640469
2.079615175
2.087181285
2.095327497
2.103875947
2.112566815
2.121115279
2.129248559
2.136729446
2.14337066
2.149042456
2.153674466
2.157252131
2.159808237
2.161410482
2.162146226
2.162108011
2.161389392
2.159973841
2.157883424
2.155048149
2.151339345
2.146585002
2.140599948
2.133226637
2.124379661
2.114085182
2.102503647
2.089930014
2.076770009
2.063496118
2.050592545
2.038501559
2.027582485
2.01808954
2.010168589
2.003868263
1.999158911
1.995956727
1.994262116
1.993746223
1.994201501
1.995629757
1.997882776
2.000827993
2.004355263
2.008379271
2.012838954
2.01769734
2.022940434
2.028574441
2.034620903
2.041109745
2.04807028
2.055521202
2.063461076
2.071858982
2.080646799
2.089715981
2.098919808
2.108082085
2.117011551
2.125519671
2.133438512
2.140635322
2.147021543
2.152556503
2.157244402
2.1611267
2.164272335
2.166767473
2.168706104
2.170182294
2.17128447
2.172091745
2.172672022
2.173081527
2.173365347
2.173558597
2.1736879
2.17377294
2.173827924
2.17386288
2.173884732
2.173898163
2.173906276
2.173911084
2.173913869
2.173915431
2.173916272
2.173916894
2.172516465
2.172385105
2.172119217
2.171707645
2.171132594
2.170368972
2.169383363
2.168132328
2.166559997
2.164594943
2.162146431
2.159100412
2.155316084
2.150624417
2.144830644
2.137722994
2.129089508
2.118743118
2.106552315
2.092471304
2.076561188
2.05899443
2.040039126
2.020026098
1.999307393
1.978216294
1.957035436
1.935973357
1.915150395
1.894611467
1.874374814
1.85445583
1.83485406
1.815713935
1.797250521
1.779922045
1.775125508
1.776857008
1.786107691
1.805759506
1.838963087
1.872393132
1.91194681
1.953993819
1.990702961
2.017830222
2.035957214
2.047751118
2.056034857
2.062950394
2.06980406
2.077227563
2.085394366
2.094198961
2.103384792
2.112630028
2.121603551
2.130001136
2.137568654
2.14411616
2.149524404
2.153744018
2.156787496
2.158714738
2.159613484
2.15957862
2.158709722
2.156960179
2.154332348
2.150713789
2.145927618
2.139762669
2.13202155
2.122577098
2.111425907
2.098723554
2.08479162
2.070094658
2.05519006
2.040660604
2.027044953
2.01478205
2.004179687
1.995408825
1.988518037
1.983459413
1.980111066
1.978472282
1.97807143
1.978782695
1.980522395
1.983111347
1.986384994
1.990200258
1.994439576
1.999012278
2.00385514
2.008933424
2.014240881
2.019797952
2.025647689
2.031849046
2.03846771
2.045565
2.053186456
2.061349232
2.070030258
2.079157978
2.08860944
2.098215021
2.10777126
2.117060079
2.12587094
2.1340217
2.141373999
2.147842402
2.153396011
2.15805244
2.161867812
2.164925062
2.167322394
2.169163174
2.17054804
2.171569403
2.172308214
2.172832616
2.173197997
2.173447996
2.173616025
2.173726996
2.173799026
2.17384499
2.173873826
2.173891614
2.173902397
2.173908815
2.173912551
2.173914658
2.173915792
2.173916541
2.172358225
2.172214908
2.171924677
2.171474979
2.170845284
2.170005898
2.168916179
2.167521807
2.165751123
2.163510651
2.160680176
2.157108231
2.152609541
2.146966658
2.139938557
2.131278652
2.120763065
2.108226747
2.093600701
2.076940152
2.058433304
2.038385002
2.017177619
1.995219055
1.972891209
1.950509913
1.928300743
1.906386588
1.884781883
1.863409573
1.842152623
1.820848097
1.799114366
1.776384871
1.751276089
1.874248148
1.905194559
1.901691839
1.898951838
1.898863336
1.867284243
1.794542828
1.837181903
1.896959312
1.951792673
1.992764592
2.019525769
2.035983488
2.046326511
2.053824022
2.060583116
2.067733121
2.075723368
2.084577136
2.094073828
2.103871233
2.113585604
2.122844006
2.131318862
2.138750513
2.144960164
2.149853325
2.153413276
2.155684854
2.156749931
2.156700419
2.15563236
2.153458327
2.150149153
2.145539661