/*--------------------------------*- C++ -*----------------------------------*\
| =========                 |                                                 |
| \\      /  F ield         | OpenFOAM: The Open Source CFD Toolbox           |
|  \\    /   O peration     | Version:  2412                                  |
|   \\  /    A nd           | Website:  www.openfoam.com                      |
|    \\/     M anipulation  |                                                 |
\*---------------------------------------------------------------------------*/
FoamFile
{
    version     2.0;
    format      ascii;
    arch        "LSB;label=32;scalar=64";
    class       volVectorField;
    location    "0.05";
    object      U;
}
// * * * * * * * * * * * * * * * * * * * * * * * * * * * * * * * * * * * * * //

dimensions      [0 1 -1 0 0 0 0];

internalField   nonuniform List<vector> 
12008
(
(-9.46294221e-06 -2.464175622e-05 0)
(2.134649398e-05 -4.356323882e-05 0)
(8.997542593e-05 -4.855460083e-05 0)
(0.0001687332409 -4.957895859e-05 0)
(0.0002471664571 -4.921710699e-05 0)
(0.000321172745 -4.823457623e-05 0)
(0.0003878323788 -4.686877493e-05 0)
(0.0004446884425 -4.51555892e-05 0)
(0.0004895258446 -4.310560342e-05 0)
(0.0005204210918 -4.073359124e-05 0)
(0.0005357593117 -3.804958433e-05 0)
(0.0005341967919 -3.504946388e-05 0)
(0.0005145848663 -3.171687069e-05 0)
(0.0004759367537 -2.80338875e-05 0)
(0.0004174412838 -2.398951339e-05 0)
(0.0003385170481 -1.958611605e-05 0)
(0.0002388860204 -1.483170331e-05 0)
(0.0001186844944 -9.767349609e-06 0)
(-2.145284032e-05 -4.461551061e-06 0)
(-0.0001803132258 1.009721338e-06 0)
(-0.0003560973796 6.55400072e-06 0)
(-0.0005463101311 1.207721274e-05 0)
(-0.0007479906229 1.749262449e-05 0)
(-0.0009576640854 2.270973516e-05 0)
(-0.001171507685 2.764650928e-05 0)
(-0.001385507806 3.223505169e-05 0)
(-0.001595638142 3.642182854e-05 0)
(-0.001798038878 4.016474305e-05 0)
(-0.001989174546 4.342627545e-05 0)
(-0.002165954504 4.616578909e-05 0)
(-0.002325802773 4.832970458e-05 0)
(-0.002466691198 4.984834944e-05 0)
(-0.002587086084 5.062397844e-05 0)
(-0.002685963302 5.055221555e-05 0)
(-0.002762685526 4.952337654e-05 0)
(-0.00281685579 4.744263424e-05 0)
(-0.002848333009 4.42354515e-05 0)
(-0.0028571536 3.9862333e-05 0)
(-0.002843489142 3.432613052e-05 0)
(-0.002807645276 2.768866462e-05 0)
(-0.002750125083 2.008717501e-05 0)
(-0.002671742273 1.173049468e-05 0)
(-0.002573650943 2.910109446e-06 0)
(-0.002457552343 -6.03103496e-06 0)
(-0.002325661883 -1.474841399e-05 0)
(-0.002180645152 -2.293012919e-05 0)
(-0.002025500937 -3.032039912e-05 0)
(-0.001863414134 -3.673335034e-05 0)
(-0.00169760282 -4.20594118e-05 0)
(-0.001531174999 -4.625984607e-05 0)
(-0.00136701831 -4.935460737e-05 0)
(-0.001207723134 -5.140769415e-05 0)
(-0.001055530989 -5.251541688e-05 0)
(-0.0009123112306 -5.279423323e-05 0)
(-0.0007795599721 -5.236704017e-05 0)
(-0.0006584177476 -5.135480549e-05 0)
(-0.0005497045841 -4.9872377e-05 0)
(-0.000453948366 -4.802625036e-05 0)
(-0.0003714363 -4.591320162e-05 0)
(-0.0003022514955 -4.361584802e-05 0)
(-0.0002463259818 -4.120410431e-05 0)
(-0.0002034774871 -3.87351402e-05 0)
(-0.0001734568169 -3.625326589e-05 0)
(-0.0001559679308 -3.37998904e-05 0)
(-0.0001506764884 -3.141165766e-05 0)
(-0.0001572557887 -2.910913161e-05 0)
(-0.0001753769612 -2.69090761e-05 0)
(-0.0002047269005 -2.482560772e-05 0)
(-0.0002450068148 -2.287000852e-05 0)
(-0.0002959290506 -2.105142108e-05 0)
(-0.0003572061497 -1.937527865e-05 0)
(-0.000428529131 -1.784644756e-05 0)
(-0.0005095479508 -1.646182269e-05 0)
(-0.0005998464347 -1.521298947e-05 0)
(-0.0006989296897 -1.408622615e-05 0)
(-0.0008062160123 -1.306097199e-05 0)
(-0.0009210274792 -1.211855865e-05 0)
(-0.001042532465 -1.125784809e-05 0)
(-0.001169637617 -1.049866633e-05 0)
(-0.00130089329 -9.869904103e-06 0)
(-0.001434452855 -9.409658066e-06 0)
(-0.001568063393 -9.164965758e-06 0)
(-0.001699084415 -9.188636601e-06 0)
(-0.001824538245 -9.538574584e-06 0)
(-0.001941173598 -1.027623574e-05 0)
(-0.002045540117 -1.146521868e-05 0)
(-0.002134077276 -1.316605015e-05 0)
(-0.0022032211 -1.543029657e-05 0)
(-0.00224953099 -1.829127855e-05 0)
(-0.002269844874 -2.175617831e-05 0)
(-0.002261456014 -2.579700435e-05 0)
(-0.002222290418 -3.034529256e-05 0)
(-0.002151194825 -3.521139821e-05 0)
(-0.002048422755 -4.013597432e-05 0)
(-0.001915315496 -4.491446615e-05 0)
(-0.00175456335 -4.937767886e-05 0)
(-0.001569750749 -5.3356127e-05 0)
(-0.001365197164 -5.672038683e-05 0)
(-0.001145705006 -5.937404876e-05 0)
(-0.0009163256643 -6.125399294e-05 0)
(-0.0006821396986 -6.23300822e-05 0)
(-0.0004480514885 -6.260598933e-05 0)
(-0.0002186091904 -6.211628486e-05 0)
(2.142778469e-06 -6.092295756e-05 0)
(0.0002107694727 -5.910945449e-05 0)
(0.0004045070016 -5.67741352e-05 0)
(0.0005812790877 -5.402408698e-05 0)
(0.0007396746321 -5.096945388e-05 0)
(0.0008789165583 -4.773494291e-05 0)
(0.0009988202696 -4.443394459e-05 0)
(0.001099626474 -4.110748658e-05 0)
(0.001181836053 -3.779674248e-05 0)
(0.001246174929 -3.457401924e-05 0)
(0.001293599447 -3.149952118e-05 0)
(0.001325230275 -2.861806889e-05 0)
(0.001342291277 -2.596278305e-05 0)
(0.001346062173 -2.355472885e-05 0)
(0.001337841588 -2.140504012e-05 0)
(0.00131891405 -1.95149944e-05 0)
(0.001290519331 -1.787867648e-05 0)
(0.001253836787 -1.648603027e-05 0)
(0.001209971557 -1.53219054e-05 0)
(0.001159932984 -1.43643697e-05 0)
(0.001104629014 -1.359073384e-05 0)
(0.00104486585 -1.297827496e-05 0)
(0.0009813473239 -1.250319026e-05 0)
(0.0009146796145 -1.214324991e-05 0)
(0.0008453859241 -1.187925111e-05 0)
(0.0007739326537 -1.169773449e-05 0)
(0.0007007660199 -1.159334157e-05 0)
(0.0006263586325 -1.157056384e-05 0)
(0.0005512547477 -1.164361105e-05 0)
(0.0004760981407 -1.183361923e-05 0)
(0.0004016309205 -1.216445693e-05 0)
(0.0003286516529 -1.266443577e-05 0)
(0.0002579648403 -1.337915148e-05 0)
(0.000190420786 -1.440966373e-05 0)
(0.0001271783308 -1.589686517e-05 0)
(7.087724195e-05 -1.782767319e-05 0)
(2.106150863e-05 -1.337427917e-05 0)
(-1.120794447e-05 -9.28835628e-05 0)
(5.343790707e-05 -0.0001828527645 0)
(0.0001711917072 -0.0002178436518 0)
(0.0003060243195 -0.0002257488857 0)
(0.0004390376892 -0.0002209009362 0)
(0.0005608773382 -0.0002088649893 0)
(0.0006642333766 -0.0001914054838 0)
(0.0007427399317 -0.0001691473663 0)
(0.0007907257629 -0.0001426074994 0)
(0.0008033576738 -0.0001123654214 0)
(0.000776698883 -7.897979631e-05 0)
(0.0007076552301 -4.290966698e-05 0)
(0.0005938749149 -4.534123419e-06 0)
(0.0004336660848 3.579482981e-05 0)
(0.0002260381135 7.766671261e-05 0)
(-2.916620386e-05 0.0001204966397 0)
(-0.0003311454247 0.0001635154534 0)
(-0.0006775931528 0.0002057541889 0)
(-0.001065067294 0.0002461241511 0)
(-0.001488539058 0.0002834074276 0)
(-0.00194143461 0.0003163440057 0)
(-0.002415721147 0.0003437422768 0)
(-0.002902108571 0.0003645552302 0)
(-0.003390355611 0.0003779472668 0)
(-0.003869690649 0.0003833790877 0)
(-0.004329288557 0.0003806564777 0)
(-0.004758780145 0.0003699488827 0)
(-0.005148746602 0.0003517682863 0)
(-0.005491144814 0.0003269088982 0)
(-0.005779622321 0.0002963633503 0)
(-0.006009698693 0.000261227332 0)
(-0.006178836085 0.0002226237729 0)
(-0.006286319673 0.0001815944691 0)
(-0.006333174197 0.0001390589011 0)
(-0.006321814009 9.574337111e-05 0)
(-0.006255615015 5.218501491e-05 0)
(-0.00613873943 8.775192054e-06 0)
(-0.005975789577 -3.42278192e-05 0)
(-0.005771399272 -7.660137678e-05 0)
(-0.005530178717 -0.0001180814448 0)
(-0.005256639959 -0.0001582874098 0)
(-0.004955219584 -0.0001966631924 0)
(-0.004630478126 -0.0002324826848 0)
(-0.004287045262 -0.0002649189109 0)
(-0.003929692613 -0.0002931694415 0)
(-0.003563292111 -0.0003165667594 0)
(-0.00319271689 -0.0003346511836 0)
(-0.002822723667 -0.0003472005999 0)
(-0.002457835673 -0.0003542335204 0)
(-0.00210224099 -0.0003559763163 0)
(-0.001759727496 -0.0003528100922 0)
(-0.00143364069 -0.0003452270201 0)
(-0.00112686411 -0.0003337894607 0)
(-0.000841803883 -0.0003190936196 0)
(-0.0005804059614 -0.0003017299627 0)
(-0.0003441491138 -0.00028225573 0)
(-0.0001341169846 -0.0002611926024 0)
(4.901058254e-05 -0.000239006596 0)
(0.0002048576458 -0.0002161004332 0)
(0.0003333217439 -0.0001928039741 0)
(0.0004344885742 -0.0001693775267 0)
(0.0005085946111 -0.0001460097859 0)
(0.0005559181802 -0.0001228278951 0)
(0.0005767710841 -9.992491404e-05 0)
(0.0005714501722 -7.735997422e-05 0)
(0.0005401446379 -5.514851839e-05 0)
(0.0004830135961 -3.32979453e-05 0)
(0.0004001338223 -1.180409212e-05 0)
(0.0002915086358 9.335354293e-06 0)
(0.0001570811967 3.011029288e-05 0)
(-3.181991981e-06 5.047656458e-05 0)
(-0.000189259048 7.034956049e-05 0)
(-0.0004010068017 8.961560301e-05 0)
(-0.0006380376529 0.0001081336668 0)
(-0.0008996578061 0.0001257499194 0)
(-0.001184792784 0.0001422891434 0)
(-0.001491957753 0.0001575174937 0)
(-0.001819124807 0.0001710549907 0)
(-0.002163469384 0.0001823300929 0)
(-0.002521160119 0.0001906453958 0)
(-0.002887282669 0.0001952411633 0)
(-0.003255846126 0.0001953516039 0)
(-0.003619863088 0.0001902642694 0)
(-0.003971501832 0.0001793574496 0)
(-0.004302282184 0.0001621270905 0)
(-0.004603301051 0.0001382132479 0)
(-0.004865491069 0.0001074349522 0)
(-0.005079917752 6.983195074e-05 0)
(-0.005238118883 2.571587955e-05 0)
(-0.00533249318 -2.427858089e-05 0)
(-0.005356729228 -7.914314039e-05 0)
(-0.005306187458 -0.0001374502552 0)
(-0.005178772513 -0.0001972164296 0)
(-0.004974776553 -0.0002559746913 0)
(-0.004697756199 -0.0003113539497 0)
(-0.004354167207 -0.0003613543013 0)
(-0.003952556121 -0.000404353083 0)
(-0.00350315216 -0.0004391744954 0)
(-0.003017266139 -0.0004650792141 0)
(-0.002506747243 -0.000481748508 0)
(-0.001983463735 -0.000489259281 0)
(-0.001458823032 -0.0004880487637 0)
(-0.0009433505279 -0.0004788609544 0)
(-0.0004463500527 -0.0004626798648 0)
(2.433588612e-05 -0.0004406490285 0)
(0.0004624575791 -0.000413989585 0)
(0.0008633824429 -0.0003839219751 0)
(0.001224004108 -0.0003516083099 0)
(0.001542686359 -0.0003181764102 0)
(0.001819048368 -0.0002845688797 0)
(0.002053595512 -0.0002513708939 0)
(0.002247659472 -0.000219064272 0)
(0.002403016937 -0.0001881100846 0)
(0.002521871907 -0.0001588584914 0)
(0.00260670375 -0.000131562095 0)
(0.002660152713 -0.0001063872383 0)
(0.002684935083 -8.34233025e-05 0)
(0.002683770272 -6.269503788e-05 0)
(0.002659322141 -4.417208847e-05 0)
(0.002614155812 -2.778169828e-05 0)
(0.002550711451 -1.341484989e-05 0)
(0.00247122804 -9.309206522e-07 0)
(0.002377775575 9.830444043e-06 0)
(0.002272229024 1.904087115e-05 0)
(0.002156255793 2.687808041e-05 0)
(0.002031319506 3.351699961e-05 0)
(0.001898696113 3.911550623e-05 0)
(0.001759507782 4.379414902e-05 0)
(0.001614781203 4.761534894e-05 0)
(0.001465528743 5.056464661e-05 0)
(0.001312841166 5.2544161e-05 0)
(0.001157972541 5.338971061e-05 0)
(0.001002380686 5.291809102e-05 0)
(0.0008476879541 5.099807944e-05 0)
(0.0006955465357 4.760309502e-05 0)
(0.0005474575556 4.276119602e-05 0)
(0.0004047395029 3.62809776e-05 0)
(0.0002687449258 2.725347855e-05 0)
(0.0001437953774 1.364785676e-05 0)
(3.723260691e-05 -1.627795791e-06 0)
(-9.161833483e-06 -0.000171671634 0)
(6.518059699e-05 -0.0003420714183 0)
(0.0001917036377 -0.0004098928588 0)
(0.000334449721 -0.0004242376345 0)
(0.0004724857843 -0.0004106992969 0)
(0.0005940409174 -0.0003796275092 0)
(0.0006891247536 -0.0003345426567 0)
(0.0007487798638 -0.000276997593 0)
(0.0007650349475 -0.0002084758617 0)
(0.0007311737893 -0.0001306763707 0)
(0.0006419296797 -4.530143588e-05 0)
(0.0004934236958 4.611934493e-05 0)
(0.0002830283229 0.0001422507864 0)
(9.323254805e-06 0.0002417747673 0)
(-0.000327865944 0.0003431780843 0)
(-0.00072693452 0.0004445069782 0)
(-0.001184963038 0.0005435049443 0)
(-0.001697048238 0.0006375121852 0)
(-0.002256223736 0.0007235578669 0)
(-0.002853369778 0.0007984865106 0)
(-0.003477316503 0.0008591908688 0)
(-0.004115085603 0.0009028547432 0)
(-0.004752300456 0.0009271807367 0)
(-0.005373753362 0.0009305950286 0)
(-0.005964092059 0.0009124212891 0)
(-0.006508569557 0.0008729733334 0)
(-0.006993793794 0.000813570462 0)
(-0.007408410306 0.0007364445073 0)
(-0.007743633739 0.0006445485274 0)
(-0.007993580134 0.0005413088787 0)
(-0.00815537065 0.0004303642038 0)
(-0.008229085051 0.0003153400856 0)
(-0.008217449422 0.0001995377141 0)
(-0.008125525719 8.5728998e-05 0)
(-0.007960089259 -2.391561474e-05 0)
(-0.007728940153 -0.0001278980361 0)
(-0.007440505421 -0.0002252001089 0)
(-0.007103387597 -0.0003153728639 0)
(-0.006725956347 -0.0003984315761 0)
(-0.006315883316 -0.0004745568864 0)
(-0.005880052526 -0.0005438263839 0)
(-0.005424670373 -0.0006060435687 0)
(-0.0049554238 -0.00066071161 0)
(-0.004477617362 -0.0007071421862 0)
(-0.00399624251 -0.0007446220469 0)
(-0.003515978599 -0.000772586996 0)
(-0.00304116445 -0.0007907289935 0)
(-0.002575778213 -0.0007990329893 0)
(-0.002123435885 -0.0007977808522 0)
(-0.001687411229 -0.0007875037435 0)
(-0.001270676397 -0.0007689012964 0)
(-0.0008759286028 -0.0007427969131 0)
(-0.0005056305485 -0.0007101061912 0)
(-0.0001619498032 -0.000671769201 0)
(0.0001531672117 -0.0006287462313 0)
(0.0004380491663 -0.0005819955566 0)
(0.0006914108142 -0.0005324137989 0)
(0.0009123154269 -0.0004808025089 0)
(0.001100090992 -0.0004278533697 0)
(0.001254330803 -0.0003741343334 0)
(0.00137482206 -0.0003200795353 0)
(0.001461480903 -0.0002659915784 0)
(0.001514254054 -0.0002120457937 0)
(0.001533098303 -0.0001583268932 0)
(0.001517865223 -0.0001048442057 0)
(0.001468264404 -5.154071502e-05 0)
(0.001383876695 1.657637115e-06 0)
(0.001264123187 5.484104655e-05 0)
(0.00110827725 0.0001080785447 0)
(0.0009155076179 0.0001613845018 0)
(0.0006849475824 0.0002146809588 0)
(0.0004158152231 0.0002677615042 0)
(0.0001074220641 0.0003202728248 0)
(-0.000240288653 0.0003716426499 0)
(-0.0006269071878 0.0004212561743 0)
(-0.001051342153 0.0004684677393 0)
(-0.001511745063 0.000512413593 0)
(-0.002005295012 0.0005518093319 0)
(-0.00252780357 0.0005849155191 0)
(-0.003073422306 0.0006097086784 0)
(-0.003634606302 0.0006240536947 0)
(-0.004202169965 0.0006258577354 0)
(-0.004765437634 0.0006132270331 0)
(-0.005312498341 0.0005845702704 0)
(-0.005830514069 0.0005386725089 0)
(-0.006306072705 0.0004747681608 0)
(-0.006725592502 0.0003926228377 0)
(-0.007075779561 0.0002926296303 0)
(-0.007344139977 0.0001759120077 0)
(-0.007519549619 4.442936718e-05 0)
(-0.007592864048 -9.892780356e-05 0)
(-0.007557448707 -0.0002502572285 0)
(-0.007410271134 -0.0004045616191 0)
(-0.007151921216 -0.00055573512 0)
(-0.006787640694 -0.0006977295506 0)
(-0.006326703146 -0.0008255363523 0)
(-0.005781345427 -0.0009351653319 0)
(-0.00516617588 -0.001023742353 0)
(-0.00449735147 -0.001089497221 0)
(-0.003791824223 -0.001131723709 0)
(-0.003066609798 -0.001150719555 0)
(-0.002338093177 -0.001147693286 0)
(-0.001621410031 -0.001124628873 0)
(-0.0009299363818 -0.001084110162 0)
(-0.0002749198524 -0.001029114066 0)
(0.0003347282607 -0.0009627944159 0)
(0.0008924694947 -0.0008882778803 0)
(0.001393973472 -0.0008085051625 0)
(0.001837230306 -0.0007261915192 0)
(0.002221417719 -0.0006437270595 0)
(0.002547873227 -0.0005626411757 0)
(0.002818712668 -0.0004841867789 0)
(0.003036685117 -0.000409394098 0)
(0.003205100425 -0.000338995063 0)
(0.003327552236 -0.0002734892452 0)
(0.003407777655 -0.000213177369 0)
(0.003449548049 -0.0001581927527 0)
(0.003456581168 -0.0001085317465 0)
(0.003432473279 -6.407879829e-05 0)
(0.003380660158 -2.462799266e-05 0)
(0.003304346879 1.010684468e-05 0)
(0.003206504081 4.04676669e-05 0)
(0.003089849066 6.682919705e-05 0)
(0.002956826161 8.959025806e-05 0)
(0.002809606352 0.0001091607079 0)
(0.002650094264 0.000125937055 0)
(0.002479951759 0.0001402686776 0)
(0.002300647382 0.0001524123787 0)
(0.002113535471 0.0001624845218 0)
(0.001919960648 0.0001704233649 0)
(0.001721375473 0.0001759824547 0)
(0.001519440928 0.0001787835062 0)
(0.001316064088 0.0001784397621 0)
(0.001113332653 0.0001747334757 0)
(0.0009133268244 0.0001677546497 0)
(0.0007178883852 0.0001577998032 0)
(0.0005286291415 0.0001447032534 0)
(0.0003472610238 0.0001263051951 0)
(0.0001804133889 9.59388257e-05 0)
(4.179271174e-05 4.320600023e-05 0)
(-8.64338855e-06 -0.0002535188166 0)
(6.446478004e-05 -0.0005019821254 0)
(0.0001851232088 -0.0005995670072 0)
(0.0003185310183 -0.0006172038572 0)
(0.0004437550427 -0.0005908401083 0)
(0.0005482817348 -0.0005349267149 0)
(0.0006208686979 -0.0004544787046 0)
(0.0006511913636 -0.0003520443638 0)
(0.0006300434326 -0.0002303649055 0)
(0.0005498036815 -9.26888772e-05 0)
(0.0004047500469 5.761739239e-05 0)
(0.0001909390056 0.0002174740718 0)
(-9.384379664e-05 0.0003840444606 0)
(-0.0004499596591 0.0005543874791 0)
(-0.0008757930509 0.0007252009882 0)
(-0.001368063977 0.0008928303371 0)
(-0.001921245625 0.001052933274 0)
(-0.002527438775 0.001200541956 0)
(-0.003176282308 0.001330291758 0)
(-0.003855010583 0.001436725267 0)
(-0.004548704689 0.001514689483 0)
(-0.005240741486 0.001559761401 0)
(-0.005913441448 0.001568655452 0)
(-0.006548877961 0.001539571902 0)
(-0.007129798888 0.001472457091 0)
(-0.007640563943 0.001369097866 0)
(-0.008068017245 0.001233077813 0)
(-0.008402208813 0.001069522867 0)
(-0.00863684531 0.0008846808265 0)
(-0.008769432629 0.0006854282409 0)
(-0.008801108384 0.0004787728037 0)
(-0.008736349212 0.0002714306772 0)
(-0.008582384162 6.926587898e-05 0)
(-0.008348467356 -0.0001230492944 0)
(-0.008045052875 -0.0003019475703 0)
(-0.007683276615 -0.0004651734501 0)
(-0.007273787545 -0.0006117922691 0)
(-0.006826687824 -0.0007418573131 0)
(-0.006351144552 -0.0008562468145 0)
(-0.005855130954 -0.0009562213994 0)
(-0.005345432739 -0.001042920479 0)
(-0.004827855313 -0.001117034006 0)
(-0.004307479762 -0.001178735725 0)
(-0.003788829823 -0.001227850972 0)
(-0.003275905728 -0.001264098109 0)
(-0.002772148546 -0.001287312325 0)
(-0.002280422567 -0.001297560837 0)
(-0.001803046771 -0.001295152419 0)
(-0.001341910944 -0.001280618045 0)
(-0.0008986532238 -0.00125465084 0)
(-0.0004748599323 -0.001218024087 0)
(-7.217377174e-05 -0.001171574142 0)
(0.0003075853396 -0.001116228759 0)
(0.0006622800839 -0.001053021203 0)
(0.0009899571782 -0.0009830230793 0)
(0.001288555449 -0.0009073733407 0)
(0.001556158366 -0.0008272108993 0)
(0.001791084503 -0.0007436158585 0)
(0.001991937948 -0.0006575530901 0)
(0.002157616171 -0.0005698336381 0)
(0.002287262521 -0.0004810783483 0)
(0.002380193807 -0.0003917038501 0)
(0.002435779566 -0.0003019200942 0)
(0.002453397073 -0.0002117681056 0)
(0.002432281121 -0.000121157789 0)
(0.002371466397 -2.989046449e-05 0)
(0.00226976541 6.227494564e-05 0)
(0.002125742452 0.0001555970218 0)
(0.001937716477 0.000250283585 0)
(0.001703828609 0.0003464264991 0)
(0.001422143855 0.0004439314918 0)
(0.001090810993 0.0005424436494 0)
(0.000708261627 0.0006412484781 0)
(0.0002734221633 0.0007392355198 0)
(-0.0002140951911 0.0008349806528 0)
(-0.000753109865 0.0009269192209 0)
(-0.001341770284 0.001013326365 0)
(-0.001976802839 0.001091505883 0)
(-0.002652887862 0.00115789783 0)
(-0.003362371936 0.00120852995 0)
(-0.00409534246 0.001239317891 0)
(-0.004839759349 0.001246332238 0)
(-0.005581670258 0.001226071812 0)
(-0.006305552551 0.001175643545 0)
(-0.006994704115 0.001092897495 0)
(-0.00763169332 0.000976563089 0)
(-0.008198881693 0.0008263972086 0)
(-0.008679020974 0.0006433478597 0)
(-0.009055919558 0.000429721418 0)
(-0.009315174356 0.0001893401916 0)
(-0.009444938494 -7.232543922e-05 0)
(-0.009436578807 -0.0003480548701 0)
(-0.009285930532 -0.0006287746758 0)
(-0.008993688348 -0.0009034565527 0)
(-0.008566213154 -0.001161173202 0)
(-0.00801512538 -0.001393046221 0)
(-0.007355645551 -0.001591997534 0)
(-0.006606023651 -0.001752911432 0)
(-0.005786554294 -0.001872618432 0)
(-0.004918679391 -0.001949839216 0)
(-0.004024079684 -0.001985100708 0)
(-0.003123776822 -0.001980588751 0)
(-0.002237296922 -0.001939919986 0)
(-0.001381954959 -0.001867827404 0)
(-0.0005723136565 -0.001769783546 0)
(0.000180140106 -0.001651593272 0)
(0.0008670734698 -0.001519002797 0)
(0.001483124735 -0.001377356469 0)
(0.002025950448 -0.001231497543 0)
(0.002494661967 -0.001085846376 0)
(0.002891683416 -0.0009432914219 0)
(0.003220129121 -0.0008060689963 0)
(0.003483946364 -0.0006758578871 0)
(0.003687696341 -0.0005537950052 0)
(0.003836162019 -0.000440600427 0)
(0.003934188243 -0.0003366558412 0)
(0.003986555241 -0.0002420701629 0)
(0.003997884823 -0.0001567381009 0)
(0.003972574917 -8.038382713e-05 0)
(0.00391476742 -1.259031525e-05 0)
(0.003828277728 4.717530592e-05 0)
(0.003716619325 9.951974742e-05 0)
(0.003582971433 0.000145097158 0)
(0.003430176886 0.0001845962622 0)
(0.00326074697 0.0002187158535 0)
(0.003076873475 0.000248124661 0)
(0.002880461107 0.0002734029 0)
(0.002673188532 0.0002949693224 0)
(0.002456600054 0.0003130030028 0)
(0.002232224315 0.0003273856242 0)
(0.002001706273 0.0003376998528 0)
(0.001766917439 0.0003433250165 0)
(0.001529997861 0.0003436510738 0)
(0.001293288398 0.0003383719345 0)
(0.001059148592 0.0003277011928 0)
(0.0008297563655 0.0003121597472 0)
(0.0006072506634 0.0002913383123 0)
(0.0003942914836 0.0002609008677 0)
(0.0002001048656 0.0002071762299 0)
(4.352805783e-05 0.0001018369366 0)
(-8.763117365e-06 -0.0003333810899 0)
(5.999885562e-05 -0.0006546958556 0)
(0.0001717166502 -0.0007774971242 0)
(0.0002926355833 -0.0007946722151 0)
(0.000402342964 -0.0007519087648 0)
(0.0004883546738 -0.0006671441757 0)
(0.000539111308 -0.0005465771848 0)
(0.0005438555159 -0.0003937230643 0)
(0.0004930236607 -0.0002127655776 0)
(0.000378927504 -8.832035368e-06 0)
(0.000196011971 0.0002126826554 0)
(-5.910047521e-05 0.0004466978054 0)
(-0.0003875722366 0.0006883039093 0)
(-0.0007880715631 0.0009323724014 0)
(-0.001257386789 0.001173678414 0)
(-0.001789845105 0.001406216681 0)
(-0.002377237799 0.001623127343 0)
(-0.003008729075 0.001816846357 0)
(-0.003670890181 0.001979458864 0)
(-0.004347928157 0.002103207277 0)
(-0.005022140878 0.002181102255 0)
(-0.005674601981 0.002207558534 0)
(-0.006286060101 0.002178991727 0)
(-0.006837974526 0.002094280217 0)
(-0.007313635993 0.001955081924 0)
(-0.007699215734 0.001765842081 0)
(-0.007984650181 0.001533610562 0)
(-0.008164259256 0.001267497229 0)
(-0.008236919925 0.0009779145005 0)
(-0.008205830797 0.000675742889 0)
(-0.008077901626 0.0003715177635 0)
(-0.007863109879 7.485878781e-05 0)
(-0.007573395638 -0.000206140108 0)
(-0.00722174321 -0.0004653658003 0)
(-0.006821723048 -0.0006989006048 0)
(-0.006384352251 -0.0009053919891 0)
(-0.005919528593 -0.001084841742 0)
(-0.005435992693 -0.001238365979 0)
(-0.004941152448 -0.00136821156 0)
(-0.00444096376 -0.001477091427 0)
(-0.003940127103 -0.001567437279 0)
(-0.00344252335 -0.001640930755 0)
(-0.002951596787 -0.00169846502 0)
(-0.002470468198 -0.001740460499 0)
(-0.002001800534 -0.001767228352 0)
(-0.001547512376 -0.001779223648 0)
(-0.001108678896 -0.001777113667 0)
(-0.0006855167085 -0.001761681997 0)
(-0.0002776357911 -0.001733691656 0)
(0.0001156341983 -0.001693766879 0)
(0.0004944633169 -0.001642420332 0)
(0.0008587626056 -0.001580042176 0)
(0.001207556336 -0.001507030914 0)
(0.001539037574 -0.001423942613 0)
(0.001850724836 -0.001331554393 0)
(0.002139688721 -0.001230868974 0)
(0.002402851998 -0.001123080105 0)
(0.002637243501 -0.00100947263 0)
(0.002840180913 -0.0008913006896 0)
(0.003009359261 -0.0007696758989 0)
(0.003142845076 -0.0006454788331 0)
(0.003239007666 -0.0005193021537 0)
(0.0032963662 -0.0003914267649 0)
(0.003313505193 -0.0002618514634 0)
(0.003288871278 -0.0001303541764 0)
(0.003220654098 3.468807587e-06 0)
(0.003106744666 0.0001401132005 0)
(0.00294468909 0.0002801013734 0)
(0.002731675885 0.0004238689923 0)
(0.002464623692 0.0005716530136 0)
(0.00214032232 0.0007233636714 0)
(0.001755646862 0.0008784570995 0)
(0.001307836825 0.001035804212 0)
(0.000794854313 0.001193588143 0)
(0.0002155750475 0.001349319534 0)
(-0.000429923094 0.001500202283 0)
(-0.001139255661 0.001643139882 0)
(-0.001909117211 0.001773629638 0)
(-0.002733225043 0.001885586119 0)
(-0.00360217571 0.00197245907 0)
(-0.004503815427 0.002027683501 0)
(-0.005423418448 0.002045028848 0)
(-0.006343926944 0.002018989524 0)
(-0.00724635067 0.001945035424 0)
(-0.008110202797 0.001819823601 0)
(-0.008914021214 0.001641421591 0)
(-0.009636004093 0.001409549956 0)
(-0.01025475308 0.001125837337 0)
(-0.01075011254 0.0007940658931 0)
(-0.01110408317 0.0004203822635 0)
(-0.01130176714 1.345905082e-05 0)
(-0.01133215691 -0.0004153989521 0)
(-0.01118952253 -0.000852136379 0)
(-0.01087431425 -0.001279585698 0)
(-0.01039336148 -0.001680766957 0)
(-0.00976031583 -0.002042112731 0)
(-0.008992948634 -0.002352759508 0)
(-0.008112860946 -0.002604751467 0)
(-0.007144382146 -0.002793031566 0)
(-0.006113571232 -0.002915405076 0)
(-0.005047137633 -0.002972476392 0)
(-0.003971300062 -0.002967481495 0)
(-0.002910666207 -0.002905976102 0)
(-0.001887223808 -0.002795367374 0)
(-0.000919534507 -0.002644318314 0)
(-2.221161796e-05 -0.002462084824 0)
(0.0007942603088 -0.002257850712 0)
(0.001523352781 -0.002040083141 0)
(0.002162478855 -0.001816359593 0)
(0.002710818334 -0.001593863565 0)
(0.003172331934 -0.001377299976 0)
(0.00355162522 -0.001170035577 0)
(0.003854312175 -0.0009744416379 0)
(0.004086616229 -0.0007920176974 0)
(0.004254850278 -0.0006236032476 0)
(0.004365225118 -0.0004695356322 0)
(0.004423706014 -0.0003297695165 0)
(0.004435922981 -0.0002039740233 0)
(0.004407120706 -9.159933407e-05 0)
(0.004342140649 8.084368165e-06 0)
(0.004245375308 9.594169913e-05 0)
(0.004120820421 0.0001729180806 0)
(0.003972045872 0.0002400119915 0)
(0.003802216691 0.0002982583742 0)
(0.003614105008 0.000348694836 0)
(0.003410111003 0.0003923031242 0)
(0.003192305612 0.0004299291209 0)
(0.002962500099 0.000462177998 0)
(0.002722347574 0.0004893061033 0)
(0.00247347261 0.0005111423231 0)
(0.002217613386 0.0005270924895 0)
(0.001956743837 0.0005362785496 0)
(0.001693129595 0.000537840931 0)
(0.001429283052 0.000531340113 0)
(0.001167821368 0.0005170213736 0)
(0.0009113419338 0.000495428124 0)
(0.0006627140836 0.0004654813331 0)
(0.0004258143165 0.0004198369776 0)
(0.0002121930193 0.0003364006314 0)
(4.429611514e-05 0.0001676988075 0)
(-9.069989484e-06 -0.0004105752046 0)
(5.565171461e-05 -0.0008004114347 0)
(0.0001600659045 -0.0009448637503 0)
(0.0002711550965 -0.0009586343228 0)
(0.0003690726723 -0.0008969379995 0)
(0.0004417275908 -0.000780936285 0)
(0.0004778448792 -0.000617862111 0)
(0.000466919549 -0.0004122017512 0)
(0.0003997525041 -0.0001697208901 0)
(0.0002691723757 0.0001023292621 0)
(7.041433325e-05 0.0003962073908 0)
(-0.0001988004927 0.0007044217578 0)
(-0.0005379747503 0.001019470117 0)
(-0.0009441139388 0.001333945988 0)
(-0.001411728375 0.001640092151 0)
(-0.001932574209 0.001929236197 0)
(-0.002495658557 0.002191783719 0)
(-0.003087269209 0.002417480634 0)
(-0.003691179947 0.00259594926 0)
(-0.004289092717 0.002717427729 0)
(-0.004861341575 0.002773628458 0)
(-0.005387846968 0.002758594772 0)
(-0.005849297362 0.002669483747 0)
(-0.006228410131 0.002507084964 0)
(-0.006511242733 0.002276139136 0)
(-0.006688291828 0.001985110509 0)
(-0.006755304374 0.001645788916 0)
(-0.006713634286 0.001272254993 0)
(-0.006569924397 0.0008796628602 0)
(-0.006335356085 0.0004829075974 0)
(-0.006024367544 9.552826304e-05 0)
(-0.005653196513 -0.0002704762949 0)
(-0.005239007489 -0.0006056305286 0)
(-0.004798917154 -0.0009044128304 0)
(-0.00434440022 -0.0011655389 0)
(-0.00388450275 -0.001389709178 0)
(-0.003425620092 -0.001578692903 0)
(-0.00297262983 -0.001734989801 0)
(-0.002528831588 -0.001862287886 0)
(-0.002096185233 -0.001964693784 0)
(-0.001675765905 -0.002045685524 0)
(-0.001268552875 -0.002107545635 0)
(-0.0008759667243 -0.002151509484 0)
(-0.0004997996734 -0.002178375124 0)
(-0.000141723769 -0.002189138636 0)
(0.0001976443999 -0.002185217047 0)
(0.0005190069847 -0.002168341806 0)
(0.000824783852 -0.002140180073 0)
(0.001118449441 -0.002101898437 0)
(0.001403890674 -0.002053942748 0)
(0.001684524446 -0.001996075041 0)
(0.001962556371 -0.00192755517 0)
(0.002238484498 -0.001847463049 0)
(0.002510984586 -0.001755090787 0)
(0.002777100242 -0.001650212383 0)
(0.003032668133 -0.001533200029 0)
(0.003272854144 -0.0014050061 0)
(0.003492674283 -0.001267005601 0)
(0.003687402528 -0.001120770105 0)
(0.003852817552 -0.0009678322402 0)
(0.003985283507 -0.0008094892119 0)
(0.004081701834 -0.0006466617572 0)
(0.004139325083 -0.0004798178355 0)
(0.004155617893 -0.0003089715224 0)
(0.004127968092 -0.0001337661053 0)
(0.004053486157 4.644861079e-05 0)
(0.003928920878 0.0002325118818 0)
(0.003750578163 0.0004253097031 0)
(0.003514283658 0.0006256130387 0)
(0.003215487895 0.0008338854148 0)
(0.002849449463 0.00105007947 0)
(0.002411519266 0.001273430644 0)
(0.001897501874 0.001502274409 0)
(0.001304084837 0.00173391794 0)
(0.000629417399 0.001964620264 0)
(-0.0001276912339 0.002190111273 0)
(-0.0009653077432 0.002405486975 0)
(-0.001879768114 0.002603725638 0)
(-0.002864160361 0.002775520453 0)
(-0.003907325119 0.002911089323 0)
(-0.004994922006 0.003000844466 0)
(-0.006109578995 0.003035755409 0)
(-0.007231055368 0.003007834357 0)
(-0.008336654818 0.002910461166 0)
(-0.009401675949 0.002738703327 0)
(-0.01040001393 0.002489675779 0)
(-0.01130494698 0.002162927854 0)
(-0.01209008459 0.001760827933 0)
(-0.01273044365 0.001288904993 0)
(-0.01320360126 0.0007561128116 0)
(-0.01349086315 0.0001750027288 0)
(-0.01357821984 -0.0004382051689 0)
(-0.01345763406 -0.001063586962 0)
(-0.0131291724 -0.001676551362 0)
(-0.01259915137 -0.002252783597 0)
(-0.0118829525 -0.002773140018 0)
(-0.01100050356 -0.003222130905 0)
(-0.009976664127 -0.003588133135 0)
(-0.008840061771 -0.003863433112 0)
(-0.007622022825 -0.004044290581 0)
(-0.006355302558 -0.004130984268 0)
(-0.005072633864 -0.004127697337 0)
(-0.003805216674 -0.004042159412 0)
(-0.002581281182 -0.003885017431 0)
(-0.001424873411 -0.003668973195 0)
(-0.0003549946012 -0.003407774733 0)
(0.0006148032093 -0.003115162731 0)
(0.001476244306 -0.002803794161 0)
(0.002226597519 -0.002484741743 0)