# Probe 0 (0.1 0 0)
#       Probe             0
#        Time
       0.0005             (17.6241 -10.4674 0)
        0.001             (18.5472 5.1701 0)
       0.0015             (19.8211 18.6199 0)
        0.002             (19.0286 18.7371 0)
       0.0025             (17.9606 13.1998 0)
        0.003             (15.8579 8.40241 0)
       0.0035             (13.7446 4.97783 0)
        0.004             (12.5817 2.55203 0)
       0.0045             (11.7613 0.76724 0)
        0.005             (11.0611 -0.418472 0)
       0.0055             (10.4125 -0.661473 0)
        0.006             (10.2344 -0.053749 0)
       0.0065             (10.5097 0.470132 0)
        0.007             (10.7393 0.732994 0)
       0.0075             (10.8736 1.0325 0)
        0.008             (11.0499 1.42252 0)
       0.0085             (11.3444 1.85658 0)
        0.009             (11.7418 2.28139 0)
       0.0095             (12.2175 2.79325 0)
         0.01             (12.8625 3.64031 0)
       0.0105             (13.9775 5.02282 0)
        0.011             (16.1572 7.06466 0)
       0.0115             (20.1737 9.68067 0)
        0.012             (21.4256 6.3296 0)
       0.0125             (22.918 -0.896234 0)
        0.013             (22.7089 -11.4718 0)
       0.0135             (17.4091 -16.7601 0)
        0.014             (12.898 -19.5769 0)
       0.0145             (11.0146 -18.3251 0)
        0.015             (12.5021 -21.3468 0)
       0.0155             (14.9511 -20.9363 0)
        0.016             (17.8596 -13.9443 0)
       0.0165             (19.7443 -2.97203 0)
        0.017             (21.2629 14.7379 0)
       0.0175             (21.9943 19.1528 0)
        0.018             (19.3253 15.0684 0)
       0.0185             (15.0587 12.1129 0)
        0.019             (9.70428 4.8381 0)
       0.0195             (11.4562 1.41245 0)
         0.02             (11.3145 1.26429 0)
       0.0205             (10.7411 0.805028 0)
        0.021             (10.464 0.463149 0)
       0.0215             (10.3962 0.458643 0)
        0.022             (10.4523 0.596533 0)
       0.0225             (10.5664 0.789888 0)
        0.023             (10.7322 1.06662 0)
       0.0235             (10.9793 1.4334 0)
        0.024             (11.3329 1.85728 0)
       0.0245             (11.7909 2.31814 0)
        0.025             (12.3777 2.90156 0)
       0.0255             (13.2018 3.72956 0)
        0.026             (14.4714 4.87072 0)
       0.0265             (16.5584 6.47789 0)
        0.027             (20.451 9.00122 0)
       0.0275             (20.9961 5.40334 0)
        0.028             (23.3168 -0.385556 0)
       0.0285             (22.5126 -11.844 0)
        0.029             (18.1343 -17.2877 0)
       0.0295             (14.4498 -19.965 0)
         0.03             (12.3443 -17.317 0)
       0.0305             (13.6588 -18.5755 0)
        0.031             (14.3735 -20.8294 0)
       0.0315             (14.8931 -19.6154 0)
        0.032             (14.4052 -11.1484 0)
       0.0325             (17.9608 11.4552 0)
        0.033             (19.1329 16.4648 0)
       0.0335             (18.6412 19.1371 0)
        0.034             (16.9008 11.5929 0)
       0.0345             (15.947 7.04574 0)
        0.035             (15.0674 4.66707 0)
       0.0355             (13.8934 2.88358 0)
        0.036             (12.8271 1.42816 0)
       0.0365             (11.6852 0.143405 0)
        0.037             (10.4489 -0.232149 0)
       0.0375             (10.0785 0.256072 0)
        0.038             (10.3641 0.646324 0)
       0.0385             (10.6605 0.87991 0)
        0.039             (10.8895 1.19499 0)
       0.0395             (11.1655 1.63253 0)
         0.04             (11.5597 2.11634 0)
       0.0405             (12.0606 2.59956 0)
        0.041             (12.6632 3.16924 0)
       0.0415             (13.4228 3.94538 0)
        0.042             (14.5003 5.16168 0)
       0.0425             (16.4838 7.16266 0)
        0.043             (20.3433 9.9136 0)
       0.0435             (20.147 5.9091 0)
        0.044             (22.6365 0.142514 0)
       0.0445             (21.6142 -10.3869 0)
        0.045             (18.0244 -17.9974 0)
       0.0455             (13.3898 -18.6649 0)
        0.046             (11.4703 -17.4999 0)
       0.0465             (11.4833 -16.8965 0)
        0.047             (12.5429 -21.3723 0)
       0.0475             (13.1647 -20.7779 0)
        0.048             (15.0689 -4.49063 0)
       0.0485             (18.8017 10.5229 0)
        0.049             (18.4681 17.6126 0)
       0.0495             (18.9571 18.8895 0)
         0.05             (17.3481 11.671 0)
       0.0505             (16.6603 8.37116 0)
        0.051             (15.1902 5.42119 0)
       0.0515             (14.1254 3.38164 0)
        0.052             (13.3054 1.38154 0)
       0.0525             (12.0353 -0.522603 0)
        0.053             (10.1753 -1.12146 0)
       0.0535             (9.5297 0.0468253 0)
        0.054             (10.1996 0.764168 0)
       0.0545             (10.6785 0.903074 0)
        0.055             (10.8846 1.09281 0)
       0.0555             (11.0659 1.43442 0)
        0.056             (11.3609 1.87028 0)
       0.0565             (11.7599 2.31599 0)
        0.057             (12.2098 2.83771 0)
       0.0575             (12.7827 3.70668 0)
        0.058             (13.7975 5.18077 0)
       0.0585             (15.8166 7.29689 0)
        0.059             (19.6702 10.0088 0)
       0.0595             (20.5315 6.8439 0)
         0.06             (22.4952 0.936432 0)
       0.0605             (22.988 -9.41068 0)
        0.061             (19.303 -15.6744 0)
       0.0615             (13.6774 -16.1031 0)
        0.062             (10.8575 -17.5218 0)
       0.0625             (10.3464 -16.5033 0)
        0.063             (12.4152 -23.0166 0)
       0.0635             (14.051 -19.0059 0)
        0.064             (15.5224 -10.0346 0)
       0.0645             (18.5959 9.28861 0)
        0.065             (19.7752 18.0708 0)
       0.0655             (19.9223 17.3638 0)
        0.066             (17.843 14.8748 0)
       0.0665             (14.6942 7.97461 0)
        0.067             (14.4998 6.0061 0)
       0.0675             (13.4023 3.29944 0)
        0.068             (12.5675 0.30744 0)
       0.0685             (10.8566 -1.66751 0)
        0.069             (9.35568 -0.288256 0)
       0.0695             (10.2573 0.827783 0)
         0.07             (10.7592 0.827186 0)
       0.0705             (10.8511 0.918963 0)
        0.071             (10.9288 1.22587 0)
       0.0715             (11.1255 1.64927 0)
        0.072             (11.4569 2.08361 0)
       0.0725             (11.8976 2.53173 0)
        0.073             (12.4452 3.09018 0)
       0.0735             (13.1681 3.92773 0)
        0.074             (14.3184 5.30279 0)
       0.0745             (16.5508 7.50749 0)
        0.075             (19.8783 9.35169 0)
       0.0755             (21.8385 6.01491 0)
        0.076             (23.1136 -2.1559 0)
       0.0765             (22.3898 -11.8748 0)
        0.077             (17.7709 -16.2776 0)
       0.0775             (13.3438 -18.0528 0)
        0.078             (11.0453 -16.7576 0)
       0.0785             (11.7072 -18.5633 0)
        0.079             (12.7271 -22.5043 0)
       0.0795             (12.1129 -18.4795 0)
         0.08             (12.8862 -5.10475 0)
       0.0805             (15.9414 14.3653 0)
        0.081             (18.4855 16.7089 0)
       0.0815             (17.2731 15.484 0)
        0.082             (17.1037 13.7553 0)
       0.0825             (15.1572 7.62796 0)
        0.083             (13.1898 5.94895 0)
       0.0835             (11.9109 3.7656 0)
        0.084             (11.3493 1.65619 0)
       0.0845             (10.9773 0.309895 0)
        0.085             (10.623 -0.00249993 0)
       0.0855             (10.6231 0.195108 0)
        0.086             (10.7469 0.424705 0)
       0.0865             (10.8465 0.73019 0)
        0.087             (10.99 1.16663 0)
       0.0875             (11.2536 1.67688 0)
        0.088             (11.6843 2.20208 0)
       0.0885             (12.2429 2.70634 0)
        0.089             (12.8917 3.30923 0)
       0.0895             (13.7391 4.30945 0)
         0.09             (15.1658 5.98206 0)
       0.0905             (18.1058 8.51871 0)
        0.091             (17.7442 4.91421 0)
       0.0915             (23.0213 4.47806 0)
        0.092             (22.5911 -4.11559 0)
       0.0925             (20.576 -14.9804 0)
        0.093             (16.6171 -18.464 0)
       0.0935             (13.1552 -17.0875 0)
        0.094             (9.99885 -15.4524 0)
       0.0945             (10.3732 -19.8268 0)
        0.095             (11.4705 -23.7888 0)
       0.0955             (15.6744 -11.4108 0)
        0.096             (19.8286 5.27907 0)
       0.0965             (22.943 15.3631 0)
        0.097             (21.1672 14.9899 0)
       0.0975             (18.3014 12.9196 0)
        0.098             (14.5411 11.3536 0)
       0.0985             (11.8417 7.43981 0)
        0.099             (11.1225 3.01468 0)
       0.0995             (11.546 0.292065 0)
          0.1             (11.4164 -0.9867 0)
       0.1005             (10.3901 -0.75019 0)
        0.101             (10.2317 0.384835 0)
       0.1015             (10.6166 0.822344 0)
        0.102             (10.7862 0.999748 0)
       0.1025             (10.9189 1.31466 0)
        0.103             (11.174 1.76139 0)
       0.1035             (11.5761 2.24456 0)
        0.104             (12.0985 2.73939 0)
       0.1045             (12.7521 3.33457 0)
        0.105             (13.6101 4.16412 0)
       0.1055             (14.8758 5.3785 0)
        0.106             (17.0095 7.1206 0)
       0.1065             (20.8832 9.6715 0)
        0.107             (20.6382 5.59064 0)
       0.1075             (22.8462 0.254438 0)
        0.108             (21.6508 -11.2385 0)
       0.1085             (17.8126 -18.1398 0)
        0.109             (14.3595 -20.0382 0)
       0.1095             (11.5368 -17.7979 0)
         0.11             (12.4091 -18.2933 0)
       0.1105             (13.7288 -21.4567 0)
        0.111             (15.6725 -19.6326 0)
       0.1115             (18.1936 -10.7082 0)
        0.112             (16.8051 8.29576 0)
       0.1125             (19.2528 18.4786 0)
        0.113             (19.989 19.9712 0)
       0.1135             (16.472 11.7289 0)
        0.114             (12.2645 7.3629 0)
       0.1145             (10.2339 4.34267 0)
        0.115             (10.2438 2.02224 0)
       0.1155             (10.7148 0.997993 0)
        0.116             (10.7021 0.576336 0)
       0.1165             (10.5963 0.247344 0)
        0.117             (10.5785 0.116337 0)
       0.1175             (10.6191 0.195953 0)
        0.118             (10.7073 0.437054 0)
       0.1185             (10.8595 0.793141 0)
        0.119             (11.0995 1.2319 0)
       0.1195             (11.4413 1.71853 0)
         0.12             (11.9195 2.26368 0)
       0.1205             (12.5778 2.9093 0)
        0.121             (13.5029 3.78329 0)
       0.1215             (14.9472 5.10791 0)
        0.122             (17.511 7.09091 0)
       0.1225             (21.2166 8.61312 0)
        0.123             (22.7938 4.13688 0)
       0.1235             (24.0586 -4.26191 0)
        0.124             (21.7611 -13.6284 0)
       0.1245             (16.7816 -17.6674 0)
        0.125             (13.5174 -19.4996 0)
       0.1255             (11.767 -16.5283 0)
        0.126             (12.0867 -23.5174 0)
       0.1265             (11.9298 -23.7301 0)
        0.127             (16.8638 -11.109 0)
       0.1275             (20.0654 3.45665 0)
        0.128             (19.9987 14.0461 0)
       0.1285             (21.6373 15.3837 0)
        0.129             (20.8929 12.7587 0)
       0.1295             (16.1528 10.3482 0)
         0.13             (11.7183 5.6138 0)
       0.1305             (10.4862 2.5853 0)
        0.131             (10.4571 1.05537 0)
       0.1315             (10.5229 0.612763 0)
        0.132             (10.5297 0.533848 0)
       0.1325             (10.4678 0.537371 0)
        0.133             (10.4501 0.550221 0)
       0.1335             (10.5146 0.622299 0)
        0.134             (10.6483 0.81414 0)
       0.1345             (10.8548 1.12326 0)
        0.135             (11.1661 1.52716 0)
       0.1355             (11.5972 1.99918 0)
        0.136             (12.1807 2.59892 0)
       0.1365             (13.0135 3.41375 0)
        0.137             (14.2997 4.54041 0)
       0.1375             (16.4918 6.11182 0)
        0.138             (20.636 8.25605 0)
       0.1385             (21.3668 4.72147 0)
        0.139             (24.0978 -0.998903 0)
       0.1395             (23.0855 -10.7512 0)
         0.14             (17.9922 -17.6355 0)
       0.1405             (14.3112 -21.8733 0)
        0.141             (13.2519 -17.6737 0)
       0.1415             (14.1946 -18.9249 0)
        0.142             (17.9582 -22.5269 0)
       0.1425             (18.2971 -13.1139 0)
        0.143             (18.2627 -6.90272 0)
       0.1435             (21.135 13.4309 0)
        0.144             (22.2332 21.4185 0)
       0.1445             (22.1098 20.6078 0)
        0.145             (19.702 9.79405 0)
       0.1455             (16.7891 5.99641 0)
        0.146             (13.9393 2.83594 0)
       0.1465             (12.449 1.77658 0)
        0.147             (11.5459 1.00983 0)
       0.1475             (10.8946 0.427219 0)
        0.148             (10.5076 0.161145 0)
       0.1485             (10.3731 0.187676 0)
        0.149             (10.4102 0.425654 0)
       0.1495             (10.56 0.787806 0)
         0.15             (10.7987 1.23842 0)
       0.1505             (11.1315 1.72202 0)
        0.151             (11.5729 2.19477 0)
       0.1515             (12.0979 2.66286 0)
        0.152             (12.7171 3.26232 0)
       0.1525             (13.5516 4.19215 0)
        0.153             (14.9156 5.68362 0)
       0.1535             (17.5663 7.99113 0)
        0.154             (19.1638 7.06424 0)
       0.1545             (22.5101 5.08959 0)
        0.155             (22.7783 -3.46224 0)
       0.1555             (21.3141 -14.5148 0)
        0.156             (16.3952 -18.2235 0)
       0.1565             (12.7012 -19.587 0)
        0.157             (11.9302 -16.8538 0)
       0.1575             (13.5039 -19.6188 0)
        0.158             (15.7186 -21.4947 0)
       0.1585             (18.4271 -12.6949 0)
        0.159             (19.6062 -3.96876 0)
       0.1595             (21.0435 10.5489 0)
         0.16             (20.6169 22.8712 0)
       0.1605             (19.2034 17.4479 0)
        0.161             (14.7502 7.17369 0)
       0.1615             (12.3661 4.20023 0)
        0.162             (10.8351 2.01958 0)
       0.1625             (10.7179 1.08521 0)
        0.163             (10.7741 0.931697 0)
       0.1635             (10.6554 0.82089 0)
        0.164             (10.5545 0.651517 0)
       0.1645             (10.5431 0.566957 0)
        0.165             (10.5937 0.646581 0)
       0.1655             (10.7063 0.875771 0)
        0.166             (10.9013 1.21723 0)
       0.1665             (11.1899 1.62281 0)
        0.167             (11.5812 2.06877 0)
       0.1675             (12.0933 2.57834 0)
        0.168             (12.7817 3.24871 0)
       0.1685             (13.7595 4.17335 0)
        0.169             (15.2953 5.5206 0)
       0.1695             (17.9868 7.52665 0)
         0.17             (20.9084 8.01757 0)
       0.1705             (22.6941 4.06239 0)
        0.171             (23.5077 -5.20996 0)
       0.1715             (20.5335 -15.373 0)
        0.172             (16.3513 -18.7893 0)
       0.1725             (12.6353 -19.828 0)
        0.173             (12.9086 -16.6339 0)
       0.1735             (14.9065 -18.6499 0)
        0.174             (13.6115 -22.9426 0)
       0.1745             (13.6277 -17.3532 0)
        0.175             (13.1121 2.82322 0)
       0.1755             (16.9593 12.7226 0)
        0.176             (20.8232 19.945 0)
       0.1765             (20.582 16.1696 0)
        0.177             (17.1955 9.54392 0)
       0.1775             (15.5864 5.8917 0)
        0.178             (14.0099 4.095 0)
       0.1785             (12.6489 2.2648 0)
        0.179             (11.6908 0.719102 0)
       0.1795             (10.955 -0.129384 0)
         0.18             (10.4051 -0.233672 0)
       0.1805             (10.2706 0.184714 0)
        0.181             (10.469 0.620415 0)
       0.1815             (10.7166 0.95187 0)
        0.182             (10.9512 1.31474 0)
       0.1825             (11.2431 1.73446 0)
        0.183             (11.6287 2.18098 0)
       0.1835             (12.1138 2.66019 0)
        0.184             (12.7106 3.26377 0)
       0.1845             (13.4775 4.17614 0)
        0.185             (14.7448 5.67319 0)
       0.1855             (17.1365 7.88747 0)
        0.186             (20.2845 9.5655 0)
       0.1865             (21.6885 6.04807 0)
        0.187             (22.5563 -2.05688 0)
       0.1875             (22.0989 -12.705 0)
        0.188             (16.7848 -16.6043 0)
       0.1885             (13.7811 -18.5103 0)
        0.189             (11.5206 -15.1904 0)
       0.1895             (10.8414 -14.6181 0)
         0.19             (10.6541 -23.272 0)
       0.1905             (7.3538 -22.0054 0)
        0.191             (13.981 -1.29339 0)
       0.1915             (18.1393 8.60053 0)
        0.192             (20.0685 15.0353 0)
       0.1925             (20.2008 15.3349 0)
        0.193             (17.2017 14.944 0)
       0.1935             (12.4116 11.8615 0)
        0.194             (11.3008 5.37644 0)
       0.1945             (12.4248 2.32241 0)
        0.195             (13.4827 0.250168 0)
       0.1955             (13.1124 -2.28272 0)
        0.196             (9.37165 -1.51029 0)
       0.1965             (10.5174 0.92803 0)
        0.197             (11.0867 0.736782 0)
       0.1975             (11.0319 0.858637 0)
        0.198             (11.082 1.28581 0)
       0.1985             (11.3179 1.83012 0)
        0.199             (11.7362 2.38054 0)
       0.1995             (12.2942 2.92264 0)
          0.2             (12.946 3.53616 0)
       0.2005             (13.7372 4.54487 0)
        0.201             (15.1313 6.38448 0)
       0.2015             (18.1182 9.05037 0)
        0.202             (17.2802 4.83092 0)
       0.2025             (22.8879 4.99022 0)
        0.203             (22.103 -2.85457 0)
       0.2035             (20.724 -14.2153 0)
        0.204             (16.1943 -18.4292 0)
       0.2045             (12.4654 -18.9794 0)
        0.205             (10.8805 -16.4252 0)
       0.2055             (11.9759 -20.0833 0)
        0.206             (12.8966 -21.3838 0)
       0.2065             (15.7481 -12.8596 0)
        0.207             (20.9948 3.31962 0)
       0.2075             (20.7428 13.8593 0)
        0.208             (17.5808 17.7621 0)
       0.2085             (16.6241 16.6705 0)
        0.209             (15.6143 5.64196 0)
       0.2095             (14.1267 4.94579 0)
         0.21             (12.6003 3.05882 0)
       0.2105             (11.6302 0.921323 0)
        0.211             (10.2687 -0.122497 0)
       0.2115             (9.70321 0.244339 0)
        0.212             (10.0801 0.638818 0)
       0.2125             (10.4276 0.770198 0)
        0.213             (10.6143 0.926399 0)
       0.2135             (10.7865 1.2083 0)
        0.214             (11.0419 1.59147 0)
       0.2145             (11.393 2.01388 0)
        0.215             (11.8304 2.47995 0)
       0.2155             (12.4061 3.06375 0)
        0.216             (13.2066 3.82878 0)
       0.2165             (14.362 4.90304 0)
        0.217             (16.2602 6.56269 0)
       0.2175             (19.8196 9.05339 0)
        0.218             (19.4093 5.40932 0)
       0.2185             (22.8355 1.81417 0)
        0.219             (22.9816 -8.5544 0)
       0.2195             (18.8298 -16.8141 0)
         0.22             (14.3978 -19.1772 0)
       0.2205             (12.5405 -18.5162 0)
        0.221             (13.2078 -16.7362 0)
       0.2215             (13.3999 -22.9149 0)
        0.222             (10.546 -23.2488 0)
       0.2225             (12.1004 -9.46604 0)
        0.223             (17.2329 8.23381 0)
       0.2235             (18.0214 15.3283 0)
        0.224             (18.806 17.2049 0)
       0.2245             (19.7054 14.8079 0)
        0.225             (15.743 10.8348 0)
       0.2255             (13.9821 8.84 0)
        0.226             (12.7943 5.11508 0)
       0.2265             (13.5064 1.82586 0)
        0.227             (13.9563 -1.40764 0)
       0.2275             (10.2276 -3.9755 0)
        0.228             (8.9201 0.731268 0)
       0.2285             (10.8856 0.998531 0)
        0.229             (11.0454 0.780355 0)
       0.2295             (11.0019 1.04248 0)
         0.23             (11.1212 1.56313 0)
       0.2305             (11.4668 2.16538 0)
        0.231             (12.0146 2.76207 0)
       0.2315             (12.6796 3.36919 0)
        0.232             (13.4778 4.26669 0)
       0.2325             (14.7284 5.83907 0)
        0.233             (17.2533 8.09922 0)
       0.2335             (19.4556 7.66751 0)
        0.234             (21.5972 5.60123 0)
       0.2345             (23.133 -0.887224 0)
        0.235             (21.4824 -9.37065 0)
       0.2355             (17.9186 -18.7733 0)
        0.236             (13.6532 -19.5476 0)
       0.2365             (12.1456 -17.9454 0)
        0.237             (13.372 -18.5591 0)
       0.2375             (14.3294 -21.4753 0)
        0.238             (16.8715 -16.0973 0)
       0.2385             (21.5406 -3.08055 0)
        0.239             (22.6164 11.358 0)
       0.2395             (23.7069 19.8975 0)
         0.24             (21.7169 15.1222 0)
       0.2405             (16.8359 11.2158 0)
        0.241             (13.2873 6.74947 0)
       0.2415             (11.5996 3.47679 0)
        0.242             (10.7696 1.14013 0)
       0.2425             (10.3451 -0.0646458 0)
        0.243             (10.0843 -0.333393 0)
       0.2435             (10.131 -0.0243328 0)
        0.244             (10.34 0.406581 0)
       0.2445             (10.5449 0.772148 0)
        0.245             (10.7343 1.11386 0)
       0.2455             (10.9726 1.49132 0)
        0.246             (11.3078 1.90901 0)
       0.2465             (11.745 2.35498 0)
        0.247             (12.3119 2.89429 0)
       0.2475             (13.1053 3.63774 0)
        0.248             (14.2846 4.63595 0)
       0.2485             (16.1204 6.01392 0)
        0.249             (19.269 8.06021 0)
       0.2495             (19.5468 5.50437 0)
         0.25             (22.7497 2.71405 0)
       0.2505             (22.8185 -7.85579 0)
        0.251             (19.2075 -17.2553 0)
       0.2515             (14.9355 -19.8593 0)
        0.252             (12.7512 -19.6234 0)
       0.2525             (13.0026 -17.735 0)
        0.253             (13.4376 -21.9104 0)
       0.2535             (12.0919 -21.7943 0)
        0.254             (10.4606 -10.5839 0)
       0.2545             (15.4012 11.2711 0)
        0.255             (19.3492 14.0292 0)
       0.2555             (20.4517 21.4975 0)
        0.256             (19.0097 13.5273 0)
       0.2565             (16.9092 8.71617 0)
        0.257             (15.2701 6.40984 0)
       0.2575             (13.5068 4.05554 0)
        0.258             (12.506 1.82056 0)
       0.2585             (11.9517 0.0662678 0)
        0.259             (11.149 -0.983799 0)
       0.2595             (10.2399 -0.788801 0)
         0.26             (10.2309 0.132687 0)
       0.2605             (10.6825 0.598226 0)
        0.261             (10.9258 0.853796 0)
       0.2615             (11.1024 1.23924 0)
        0.262             (11.3677 1.72664 0)
       0.2625             (11.775 2.26253 0)
        0.263             (12.3069 2.81971 0)
       0.2635             (12.9543 3.52699 0)
        0.264             (13.8397 4.66687 0)
       0.2645             (15.4415 6.53519 0)
        0.265             (18.6651 9.30315 0)
       0.2655             (18.3019 5.28301 0)
        0.266             (22.7963 2.92442 0)
       0.2665             (22.3348 -6.1514 0)
        0.267             (20.2281 -15.5679 0)
       0.2675             (15.2922 -17.3223 0)
        0.268             (12.1931 -17.6314 0)
       0.2685             (10.1481 -15.8138 0)
        0.269             (10.8738 -22.4315 0)
       0.2695             (12.1021 -22.1635 0)
         0.27             (17.1791 -8.92692 0)
       0.2705             (20.0719 5.59183 0)
        0.271             (22.6789 16.9111 0)
       0.2715             (21.1656 13.9019 0)
        0.272             (18.4487 11.5655 0)
       0.2725             (15.0333 10.3133 0)
        0.273             (11.9511 6.69849 0)
       0.2735             (10.9211 3.52361 0)
        0.274             (10.4511 1.37344 0)
       0.2745             (10.3969 0.265619 0)
        0.275             (10.3684 0.115552 0)
       0.2755             (10.3603 0.363557 0)
        0.276             (10.4513 0.646703 0)
       0.2765             (10.6032 0.912302 0)
        0.277             (10.8229 1.22154 0)
       0.2775             (11.1374 1.60513 0)
        0.278             (11.5599 2.03902 0)
       0.2785             (12.1186 2.55048 0)
        0.279             (12.8733 3.23327 0)
       0.2795             (13.986 4.28161 0)
         0.28             (15.8796 5.89152 0)
       0.2805             (19.4732 8.20961 0)
        0.281             (19.7917 4.64836 0)
       0.2815             (23.7347 0.465204 0)
        0.282             (23.4553 -9.08769 0)
       0.2825             (19.558 -16.7473 0)
        0.283             (15.6562 -19.2646 0)
       0.2835             (12.8386 -16.9008 0)
        0.284             (13.227 -17.4761 0)
       0.2845             (13.619 -20.551 0)
        0.285             (14.2962 -22.5037 0)
       0.2855             (18.2517 -9.56626 0)
        0.286             (20.3679 6.48081 0)
       0.2865             (19.9435 18.4508 0)
        0.287             (20.5258 17.3217 0)
       0.2875             (17.5872 11.0473 0)
        0.288             (16.1742 8.32213 0)
       0.2885             (13.9517 5.58014 0)
        0.289             (12.4472 3.06065 0)
       0.2895             (12.0183 1.28647 0)
         0.29             (11.2676 0.427905 0)
       0.2905             (10.5364 0.0705377 0)
        0.291             (10.261 0.287161 0)
       0.2915             (10.3876 0.646915 0)
        0.292             (10.6131 0.95184 0)
       0.2925             (10.8392 1.27944 0)
        0.293             (11.1282 1.67503 0)
       0.2935             (11.5296 2.10402 0)
        0.294             (12.0434 2.58065 0)
       0.2945             (12.7046 3.19872 0)
        0.295             (13.6489 4.10363 0)
       0.2955             (15.1691 5.43959 0)
        0.296             (17.9571 7.37586 0)
       0.2965             (20.6861 7.45762 0)
        0.297             (22.8457 3.9218 0)
       0.2975             (23.5085 -4.28214 0)
        0.298             (21.5292 -14.2445 0)
       0.2985             (15.7927 -18.5472 0)
        0.299             (12.7761 -21.1928 0)
       0.2995             (14.31 -18.7015 0)
          0.3             (15.8631 -21.3243 0)
       0.3005             (16.3911 -22.2577 0)
        0.301             (18.3215 -14.8018 0)
       0.3015             (19.7977 1.64428 0)
        0.302             (21.95 14.7915 0)
       0.3025             (21.9969 21.2757 0)
        0.303             (19.8894 16.0762 0)
       0.3035             (17.6104 9.46625 0)
        0.304             (15.54 6.64808 0)
       0.3045             (14.1722 4.16593 0)
        0.305             (13.1859 2.12088 0)
       0.3055             (12.492 0.596001 0)
        0.306             (11.5289 -0.32594 0)
       0.3065             (10.5187 -0.319223 0)
        0.307             (10.2675 0.283432 0)
       0.3075             (10.5345 0.690605 0)
        0.308             (10.7813 0.940702 0)
       0.3085             (10.974 1.28504 0)
        0.309             (11.2502 1.77435 0)
       0.3095             (11.6824 2.31676 0)
         0.31             (12.2666 2.88275 0)
       0.3105             (12.9768 3.54324 0)
        0.311             (13.8828 4.50267 0)
       0.3115             (15.3186 6.05791 0)
        0.312             (18.1594 8.36238 0)
       0.3125             (18.8708 6.24989 0)
        0.313             (23.0252 5.0577 0)
       0.3135             (23.2928 -3.41015 0)
        0.314             (21.1203 -12.5361 0)
       0.3145             (16.4897 -18.3355 0)
        0.315             (13.1852 -20.2404 0)
       0.3155             (11.6962 -17.306 0)
        0.316             (13.4749 -20.4029 0)
       0.3165             (15.1883 -20.8877 0)
        0.317             (15.8273 -13.9367 0)
       0.3175             (17.0731 -3.76241 0)
        0.318             (20.1463 13.1001 0)
       0.3185             (19.1642 19.8192 0)
        0.319             (19.0379 17.2208 0)
       0.3195             (15.1486 8.44386 0)
         0.32             (15.0516 6.70355 0)
       0.3205             (13.6716 3.85467 0)
        0.321             (12.5922 1.98345 0)
       0.3215             (11.5505 0.595548 0)
        0.322             (10.4503 0.0489856 0)
       0.3225             (10.0207 0.354162 0)
        0.323             (10.2284 0.682461 0)