/*--------------------------------*- C++ -*----------------------------------*\
| =========                 |                                                 |
| \\      /  F ield         | OpenFOAM: The Open Source CFD Toolbox           |
|  \\    /   O peration     | Version:  5.x                                   |
|   \\  /    A nd           | Web:      www.OpenFOAM.org                      |
|    \\/     M anipulation  |                                                 |
\*---------------------------------------------------------------------------*/
FoamFile
{
    version     2.0;
    format      ascii;
    class       volVectorField;
    location    "0.4";
    object      Urom;
}
// * * * * * * * * * * * * * * * * * * * * * * * * * * * * * * * * * * * * * //

dimensions      [0 1 -1 0 0 0 0];

internalField   nonuniform List<vector> 
17530
(
(0.180452 0.00251817 0)
(0.114476 0.00321123 0)
(0.474482 0.0286934 0)
(0.040479 0.00381373 0)
(0.326075 0.0321589 0)
(0.86573 0.0711848 0)
(-0.0366257 0.0039165 0)
(0.167471 0.0346914 0)
(0.670511 0.077496 0)
(1.32808 0.124077 0)
(-0.112262 0.00363373 0)
(0.00726155 0.0347906 0)
(0.468291 0.0812505 0)
(1.10981 0.132088 0)
(1.77387 0.183326 0)
(-0.187293 0.00351539 0)
(-0.149891 0.0340548 0)
(0.266716 0.0807736 0)
(0.886473 0.136665 0)
(1.55007 0.192332 0)
(2.1541 0.245359 0)
(-0.265275 0.00377837 0)
(-0.30771 0.0344888 0)
(0.0694842 0.0793231 0)
(0.661914 0.135543 0)
(1.31602 0.198696 0)
(1.93613 0.256106 0)
(2.46598 0.30725 0)
(-0.345362 0.00402433 0)
(-0.471163 0.0358158 0)
(-0.125847 0.0803559 0)
(0.444101 0.132297 0)
(1.0755 0.196761 0)
(1.69761 0.266262 0)
(2.25841 0.321214 0)
(2.72459 0.36736 0)
(-0.420751 0.00376437 0)
(-0.636236 0.0353796 0)
(-0.324514 0.0828559 0)
(0.235398 0.132539 0)
(0.847349 0.189753 0)
(1.44722 0.26324 0)
(2.02187 0.337555 0)
(2.52675 0.386404 0)
(2.94685 0.425944 0)
(-0.48523 0.00316484 0)
(-0.789644 0.0315945 0)
(-0.5246 0.0812103 0)
(0.0276837 0.135834 0)
(0.637984 0.187593 0)
(1.21562 0.250191 0)
(1.77029 0.333552 0)
(2.29668 0.410338 0)
(2.75401 0.451679 0)
(3.14975 0.485689 0)
(-0.538164 0.0028017 0)
(-0.9201 0.0261557 0)
(-0.711769 0.0724751 0)
(-0.183204 0.133288 0)
(0.432672 0.191816 0)
(1.01176 0.243772 0)
(1.5412 0.312374 0)
(2.0537 0.405273 0)
(2.53227 0.482623 0)
(2.95357 0.51785 0)
(3.35092 0.550756 0)
(-0.581402 0.00269332 0)
(-1.02533 0.0213588 0)
(-0.869596 0.0597185 0)
(-0.381558 0.118616 0)
(0.22165 0.188817 0)
(0.815581 0.248479 0)
(1.34614 0.299295 0)
(1.83534 0.374396 0)
(2.30588 0.475083 0)
(2.74062 0.552934 0)
(3.14235 0.586474 0)
(3.56509 0.624801 0)
(-0.614749 0.00239947 0)
(-1.10616 0.0167915 0)
(-0.99231 0.0469945 0)
(-0.542984 0.095808 0)
(0.0248975 0.166375 0)
(0.616388 0.244483 0)
(1.16637 0.302787 0)
(1.65497 0.352398 0)
(2.10852 0.433312 0)
(2.53674 0.539994 0)
(2.9378 0.620147 0)
(3.34053 0.659239 0)
(3.79761 0.708684 0)
(-0.636555 0.00192095 0)
(-1.16034 0.0117356 0)
(-1.0823 0.0345957 0)
(-0.66055 0.0732466 0)
(-0.130156 0.131208 0)
(0.433254 0.21403 0)
(0.990474 0.296985 0)
(1.49839 0.352376 0)
(1.95243 0.400885 0)
(2.3692 0.485679 0)
(2.76067 0.597595 0)
(3.14406 0.683563 0)
(3.56348 0.736275 0)
(4.04294 0.798939 0)
(-0.64638 0.00159531 0)
(-1.18455 0.00610945 0)
(-1.1393 0.0211181 0)
(-0.744436 0.0529548 0)
(-0.240419 0.0982472 0)
(0.285277 0.167227 0)
(0.825722 0.260397 0)
(1.34715 0.34533 0)
(1.82163 0.396795 0)
(2.24448 0.442572 0)
(2.62716 0.529167 0)
(2.99488 0.646522 0)
(3.37706 0.743041 0)
(3.81388 0.814709 0)
(4.28885 0.889456 0)
(-0.645443 0.00126715 0)
(-1.17799 0.00095395 0)
(-1.15754 0.00591829 0)
(-0.79932 0.0304818 0)
(-0.319491 0.0705255 0)
(0.17229 0.12456 0)
(0.681231 0.20523 0)
(1.19458 0.305884 0)
(1.68628 0.391294 0)
(2.13566 0.437504 0)
(2.53177 0.477515 0)
(2.89378 0.564078 0)
(3.25378 0.687014 0)
(3.6433 0.798215 0)
(4.08159 0.889556 0)
(4.52183 0.973231 0)
(-0.634326 0.000928847 0)
(-1.14284 -0.00372347 0)
(-1.12973 -0.00899932 0)
(-0.814565 0.00325128 0)
(-0.37139 0.0393359 0)
(0.0867734 0.0887309 0)
(0.559082 0.154723 0)
(1.04732 0.245986 0)
(1.53421 0.353034 0)
(2.00493 0.438214 0)
(2.43444 0.4768 0)
(2.81545 0.508854 0)
(3.17699 0.593479 0)
(3.54282 0.721168 0)
(3.93595 0.847389 0)
(4.35082 0.955359 0)
(4.72934 1.04293 0)
(-0.612057 0.00047247 0)
(-1.08113 -0.00868704 0)
(-1.05439 -0.0226479 0)
(-0.773743 -0.0260663 0)
(-0.379779 -0.00127831 0)
(0.0355885 0.0465696 0)
(0.463599 0.109327 0)
(0.917654 0.188181 0)
(1.3797 0.289591 0)
(1.84652 0.403908 0)
(2.30117 0.487904 0)
(2.71476 0.517463 0)
(3.09823 0.541977 0)
(3.47824 0.622432 0)
(3.85641 0.751469 0)
(4.239 0.888121 0)
(4.6066 1.00672 0)
(4.90154 1.09186 0)
(-0.577703 -0.000202002 0)
(-0.994526 -0.0141826 0)
(-0.938853 -0.0352432 0)
(-0.673198 -0.0531925 0)
(-0.327138 -0.0469341 0)
(0.0395664 -0.0095093 0)
(0.413258 0.0525442 0)
(0.821728 0.131242 0)
(1.24884 0.222417 0)
(1.68745 0.335382 0)
(2.14065 0.45754 0)
(2.57788 0.539371 0)
(2.98096 0.562203 0)
(3.38382 0.58241 0)
(3.79263 0.655742 0)
(4.17967 0.779272 0)
(4.5344 0.918316 0)
(4.83413 1.03898 0)
(5.03488 1.11661 0)
(-0.531081 -0.000857426 0)
(-0.885712 -0.0197966 0)
(-0.796998 -0.0465948 0)
(-0.529763 -0.0744842 0)
(-0.221588 -0.0868979 0)
(0.101587 -0.0693384 0)
(0.424825 -0.0201456 0)
(0.779009 0.0583473 0)
(1.16575 0.151251 0)
(1.56408 0.254912 0)
(1.98784 0.381276 0)
(2.42737 0.510131 0)
(2.84304 0.58982 0)
(3.2452 0.612399 0)
(3.67622 0.632791 0)
(4.10951 0.695455 0)
(4.49315 0.805479 0)
(4.80388 0.936768 0)
(5.01946 1.0496 0)
(5.13426 1.12021 0)
(-0.472393 -0.00147554 0)
(-0.75594 -0.025056 0)
(-0.638772 -0.056828 0)
(-0.364279 -0.0900862 0)
(-0.0874912 -0.115574 0)
(0.194122 -0.117299 0)
(0.47876 -0.0900282 0)
(0.784749 -0.0277498 0)
(1.13513 0.0646441 0)
(1.50019 0.167331 0)
(1.88151 0.283767 0)
(2.29563 0.423411 0)
(2.71412 0.556852 0)
(3.11001 0.637058 0)
(3.52313 0.667393 0)
(3.97669 0.691075 0)
(4.41461 0.740733 0)
(4.7776 0.830708 0)
(5.0291 0.942976 0)
(5.1557 1.0405 0)
(5.21125 1.11109 0)
(-0.401245 -0.00207316 0)
(-0.604137 -0.0303699 0)
(-0.462685 -0.0673263 0)
(-0.183961 -0.103881 0)
(0.0661926 -0.136869 0)
(0.298331 -0.15129 0)
(0.543749 -0.141536 0)
(0.80678 -0.10337 0)
(1.12335 -0.0272548 0)
(1.47501 0.0727607 0)
(1.83211 0.18115 0)
(2.21234 0.308502 0)
(2.61517 0.458017 0)
(3.00853 0.594255 0)
(3.39617 0.680132 0)
(3.82463 0.723952 0)
(4.27914 0.751362 0)
(4.69491 0.788172 0)
(5.01708 0.853949 0)
(5.19622 0.936811 0)
(5.24868 1.01814 0)
(5.27744 1.09763 0)
(-0.317063 -0.00268115 0)
(-0.427527 -0.0360171 0)
(-0.262162 -0.0791896 0)
(0.0176029 -0.119985 0)
(0.250299 -0.157847 0)
(0.427101 -0.181724 0)
(0.61876 -0.180963 0)
(0.833029 -0.158303 0)
(1.10163 -0.104203 0)
(1.43966 -0.0165695 0)
(1.79821 0.0853358 0)
(2.16528 0.196865 0)
(2.55198 0.331054 0)
(2.94373 0.484366 0)
(3.32225 0.621736 0)
(3.71498 0.717634 0)
(4.14642 0.775857 0)
(4.57175 0.806399 0)
(4.94195 0.832875 0)
(5.20147 0.870963 0)
(5.30477 0.919544 0)
(5.31392 0.991459 0)
(5.33792 1.0847 0)
(-0.219736 -0.00348309 0)
(-0.224692 -0.0419447 0)
(-0.0339179 -0.0922066 0)
(0.245867 -0.13876 0)
(0.475043 -0.181585 0)
(0.606991 -0.216143 0)
(0.7328 -0.224453 0)
(0.887953 -0.207728 0)
(1.08912 -0.166759 0)
(1.38204 -0.0926816 0)
(1.73814 0.00305175 0)
(2.11002 0.105193 0)
(2.49421 0.218568 0)
(2.88929 0.354764 0)
(3.28177 0.505608 0)
(3.66548 0.641552 0)
(4.06601 0.747161 0)
(4.47268 0.816028 0)
(4.8437 0.850293 0)
(5.14964 0.868532 0)
(5.32954 0.876029 0)
(5.3699 0.894965 0)
(5.36598 0.967588 0)
(5.39006 1.07421 0)
(-0.110607 -0.00426323 0)
(0.00271962 -0.0473415 0)
(0.217857 -0.104715 0)
(0.492494 -0.15696 0)
(0.728433 -0.2048 0)
(0.845265 -0.251191 0)
(0.911079 -0.276218 0)
(1.00293 -0.268149 0)
(1.13045 -0.233753 0)
(1.34581 -0.167956 0)
(1.66489 -0.0743086 0)
(2.0306 0.0282041 0)
(2.41394 0.133014 0)
(2.81166 0.24841 0)
(3.22254 0.383209 0)
(3.63418 0.526382 0)
(4.03671 0.657384 0)
(4.43123 0.766122 0)
(4.78498 0.839429 0)
(5.08648 0.879478 0)
(5.31301 0.887998 0)
(5.41076 0.866118 0)
(5.41295 0.867899 0)
(5.41075 0.948385 0)
(5.43131 1.0668 0)
(0.00809939 -0.00480658 0)
(0.250187 -0.0517475 0)
(0.488456 -0.115645 0)
(0.743191 -0.172413 0)
(0.979148 -0.222464 0)
(1.10943 -0.276313 0)
(1.14398 -0.32312 0)
(1.1839 -0.336333 0)
(1.25003 -0.314779 0)
(1.37858 -0.258551 0)
(1.62706 -0.165899 0)
(1.96096 -0.0558953 0)
(2.32702 0.0549149 0)
(2.71383 0.166226 0)
(3.12432 0.285708 0)
(3.56175 0.418282 0)
(4.00078 0.550504 0)
(4.41796 0.671981 0)
(4.78339 0.773169 0)
(5.06895 0.845033 0)
(5.29339 0.8905 0)
(5.43234 0.88645 0)
(5.46283 0.842645 0)
(5.45035 0.84126 0)
(5.44989 0.930949 0)
(5.47023 1.06257 0)
(0.133221 -0.00529592 0)
(0.51361 -0.0547569 0)
(0.77957 -0.125251 0)
(0.998866 -0.187452 0)
(1.21368 -0.236933 0)
(1.35821 -0.289014 0)
(1.39036 -0.349337 0)
(1.39594 -0.390723 0)
(1.42797 -0.395367 0)
(1.49242 -0.3617 0)
(1.65832 -0.280896 0)
(1.9383 -0.165533 0)
(2.27168 -0.0421644 0)
(2.63277 0.0796397 0)
(3.02303 0.200304 0)
(3.45274 0.326993 0)
(3.91545 0.458337 0)
(4.3707 0.579838 0)
(4.78238 0.686375 0)
(5.09817 0.769072 0)
(5.31547 0.834933 0)
(5.46195 0.879689 0)
(5.51795 0.861939 0)
(5.50622 0.808559 0)
(5.49223 0.812767 0)
(5.49199 0.910017 0)
(5.53048 1.05929 0)
(0.260954 -0.00546816 0)
(0.787885 -0.0565071 0)
(1.09535 -0.132508 0)
(1.27251 -0.203953 0)
(1.44704 -0.254603 0)
(1.58721 -0.300311 0)
(1.62638 -0.358153 0)
(1.60492 -0.417525 0)
(1.61368 -0.451043 0)
(1.65018 -0.451076 0)
(1.75283 -0.402865 0)
(1.97413 -0.300253 0)
(2.26928 -0.169859 0)
(2.59489 -0.0344151 0)
(2.95676 0.0996472 0)
(3.36096 0.231271 0)
(3.81111 0.367339 0)
(4.27983 0.499378 0)
(4.72794 0.612957 0)
(5.10653 0.698933 0)
(5.36337 0.756224 0)
(5.52249 0.811066 0)
(5.59709 0.844439 0)
(5.58865 0.815015 0)
(5.55964 0.764475 0)
(5.54824 0.775593 0)
(5.55934 0.880925 0)
(5.63783 1.05159 0)
(0.388345 -0.00548727 0)
(1.06616 -0.0568007 0)
(1.43293 -0.136669 0)
(1.5765 -0.219452 0)
(1.69926 -0.277507 0)
(1.81985 -0.320827 0)
(1.86322 -0.368785 0)
(1.81788 -0.428576 0)
(1.78765 -0.478142 0)
(1.80731 -0.505273 0)
(1.87209 -0.498888 0)
(2.04264 -0.433515 0)
(2.30918 -0.316725 0)
(2.60784 -0.17827 0)
(2.93617 -0.0318608 0)
(3.31211 0.113787 0)
(3.73579 0.257079 0)
(4.19188 0.402606 0)
(4.64318 0.53738 0)
(5.05893 0.644737 0)
(5.37996 0.705652 0)
(5.58217 0.736868 0)
(5.69442 0.772745 0)
(5.70882 0.784652 0)
(5.66404 0.749205 0)
(5.6355 0.70818 0)
(5.63175 0.724438 0)
(5.67781 0.842892 0)
(5.80176 1.03228 0)
(0.513015 -0.00542407 0)
(1.34236 -0.0558837 0)
(1.7809 -0.137282 0)
(1.91221 -0.22982 0)
(1.9778 -0.301087 0)
(2.07306 -0.349435 0)
(2.11869 -0.393285 0)
(2.06245 -0.446018 0)
(1.98044 -0.498137 0)
(1.96397 -0.534709 0)
(1.99766 -0.555514 0)
(2.11578 -0.534777 0)
(2.35217 -0.452572 0)
(2.64398 -0.330017 0)
(2.95457 -0.187479 0)
(3.30639 -0.0326945 0)
(3.70284 0.122362 0)
(4.13385 0.277299 0)
(4.57494 0.431208 0)
(4.99394 0.569347 0)
(5.35569 0.667051 0)
(5.60851 0.70226 0)
(5.76675 0.710447 0)
(5.83563 0.7183 0)
(5.80732 0.705509 0)
(5.75641 0.671049 0)
(5.73762 0.638746 0)
(5.75834 0.662038 0)
(5.85816 0.797997 0)
(6.01269 0.994656 0)
(0.632645 -0.00522596 0)
(1.61156 -0.053929 0)
(2.12778 -0.134841 0)
(2.26845 -0.23235 0)
(2.27722 -0.318632 0)
(2.34129 -0.377052 0)
(2.39248 -0.425785 0)
(2.34599 -0.477058 0)
(2.22465 -0.529956 0)
(2.15206 -0.567246 0)
(2.15153 -0.593166 0)
(2.21072 -0.602051 0)
(2.38785 -0.558815 0)
(2.66512 -0.462621 0)
(2.97589 -0.33851 0)
(3.32017 -0.193275 0)
(3.70638 -0.0343576 0)
(4.11344 0.127115 0)
(4.53253 0.292458 0)
(4.94527 0.453493 0)
(5.3233 0.591478 0)
(5.61742 0.672102 0)
(5.80771 0.685976 0)
(5.92387 0.673559 0)
(5.94652 0.649672 0)
(5.90072 0.619114 0)
(5.86701 0.588539 0)
(5.86815 0.561018 0)
(5.93835 0.598414 0)
(6.08879 0.745595 0)
(6.26521 0.937708 0)
(0.745198 -0.00493925 0)
(1.86953 -0.0510416 0)
(2.46736 -0.130269 0)
(2.63222 -0.228866 0)
(2.5935 -0.326688 0)
(2.60777 -0.396924 0)
(2.66403 -0.452604 0)
(2.64554 -0.510199 0)
(2.52053 -0.571117 0)
(2.39225 -0.616209 0)
(2.34916 -0.639162 0)
(2.36232 -0.656069 0)
(2.46077 -0.644001 0)
(2.68361 -0.57557 0)
(2.98036 -0.468296 0)
(3.31851 -0.340502 0)
(3.70766 -0.192321 0)
(4.11772 -0.0338355 0)
(4.51981 0.130823 0)
(4.91777 0.303908 0)
(5.29773 0.468864 0)
(5.6258 0.598336 0)
(5.85096 0.656451 0)
(5.98646 0.654771 0)
(6.04753 0.622974 0)
(6.02867 0.575037 0)
(5.99488 0.538951 0)
(5.99177 0.508937 0)
(6.03509 0.486701 0)
(6.16929 0.54057 0)
(6.35484 0.682528 0)
(6.57448 0.871127 0)
(0.848638 -0.0045953 0)
(2.11256 -0.0472033 0)
(2.79666 -0.123964 0)
(2.99587 -0.222411 0)
(2.93121 -0.326658 0)
(2.87292 -0.409996 0)
(2.91627 -0.46898 0)
(2.92698 -0.531677 0)
(2.83278 -0.603438 0)
(2.6787 -0.669008 0)
(2.5885 -0.702094 0)
(2.56936 -0.716466 0)
(2.60174 -0.720628 0)
(2.74775 -0.681445 0)
(3.00236 -0.591604 0)
(3.31331 -0.473955 0)
(3.68303 -0.335989 0)
(4.10248 -0.183527 0)
(4.51481 -0.0288068 0)
(4.90715 0.136755 0)
(5.28631 0.312537 0)
(5.63246 0.473954 0)
(5.90168 0.584568 0)
(6.06119 0.620449 0)
(6.13571 0.606631 0)
(6.13102 0.559875 0)
(6.09256 0.506421 0)
(6.09157 0.47416 0)
(6.13319 0.441811 0)
(6.24804 0.428679 0)
(6.44036 0.485587 0)
(6.66215 0.612241 0)
(6.95521 0.807154 0)
(0.940612 -0.00415163 0)
(2.33625 -0.0424627 0)
(3.113 -0.115629 0)
(3.35591 -0.21403 0)
(3.29078 -0.321471 0)
(3.15933 -0.418929 0)
(3.15382 -0.4825 0)
(3.18064 -0.541779 0)
(3.12583 -0.617008 0)
(2.981 -0.702406 0)
(2.8534 -0.76397 0)
(2.80874 -0.787682 0)
(2.8032 -0.797084 0)
(2.87195 -0.781643 0)
(3.06924 -0.716382 0)
(3.3496 -0.612043 0)
(3.67636 -0.48189 0)
(4.06515 -0.32735 0)
(4.48372 -0.169237 0)
(4.88444 -0.0173339 0)
(5.27366 0.14759 0)
(5.63937 0.318082 0)
(5.94949 0.464095 0)
(6.15136 0.547036 0)
(6.23934 0.564255 0)
(6.24 0.540839 0)
(6.18337 0.491066 0)
(6.15313 0.452135 0)
(6.19314 0.429543 0)
(6.3062 0.400072 0)
(6.50829 0.390295 0)
(6.74821 0.427967 0)
(7.02996 0.546483 0)
(7.39194 0.745351 0)
(1.01899 -0.00359189 0)
(2.53481 -0.0367689 0)
(3.4108 -0.104722 0)
(3.70967 -0.202628 0)
(3.66231 -0.312684 0)
(3.48757 -0.422329 0)
(3.39967 -0.50019 0)
(3.41933 -0.552762 0)
(3.39416 -0.620597 0)
(3.27945 -0.71085 0)
(3.12974 -0.801534 0)
(3.05296 -0.853466 0)
(3.03325 -0.87325 0)
(3.04905 -0.874579 0)
(3.17761 -0.835347 0)
(3.42462 -0.751541 0)
(3.72463 -0.638279 0)
(4.06369 -0.492187 0)
(4.44927 -0.318968 0)
(4.8409 -0.15365 0)
(5.23094 0.00194248 0)
(5.6231 0.164005 0)
(5.97783 0.319219 0)
(6.24265 0.435502 0)
(6.36504 0.485127 0)
(6.3689 0.48781 0)
(6.30124 0.460437 0)
(6.22686 0.424353 0)
(6.22252 0.412978 0)
(6.31691 0.409334 0)
(6.52881 0.390933 0)
(6.81124 0.363434 0)
(7.10432 0.371447 0)
(7.46101 0.493279 0)
(7.84487 0.669606 0)
(1.08163 -0.00294391 0)
(2.70271 -0.0300641 0)
(3.68101 -0.0909265 0)
(4.051 -0.186372 0)
(4.03381 -0.299398 0)
(3.85317 -0.417246 0)
(3.683 -0.517512 0)
(3.65778 -0.574323 0)
(3.65101 -0.629264 0)
(3.57079 -0.709674 0)
(3.42235 -0.812336 0)
(3.30364 -0.897222 0)
(3.26271 -0.939664 0)
(3.25314 -0.956719 0)
(3.3195 -0.942124 0)
(3.52206 -0.880956 0)
(3.80605 -0.78833 0)
(4.11396 -0.66792 0)
(4.45619 -0.503611 0)
(4.81945 -0.314969 0)
(5.17899 -0.138821 0)
(5.56583 0.0282989 0)
(5.95939 0.184395 0)
(6.29572 0.313481 0)
(6.49414 0.38614 0)
(6.52453 0.401237 0)
(6.44872 0.393044 0)
(6.34204 0.371828 0)
(6.28068 0.36337 0)
(6.31941 0.387088 0)
(6.49768 0.416093 0)
(6.81182 0.405421 0)
(7.15848 0.339722 0)
(7.5191 0.326078 0)
(7.92862 0.443658 0)
(8.27728 0.561572 0)
(1.12671 -0.00215341 0)
(2.83491 -0.0225377 0)
(3.91457 -0.0744014 0)
(4.36953 -0.164516 0)
(4.39575 -0.279181 0)
(4.23217 -0.402777 0)
(4.01689 -0.523315 0)
(3.912 -0.602941 0)
(3.90727 -0.650979 0)
(3.85505 -0.716464 0)
(3.73169 -0.811311 0)
(3.5829 -0.91755 0)
(3.50068 -0.990304 0)
(3.4699 -1.0263 0)
(3.48494 -1.0341 0)
(3.62995 -0.996375 0)
(3.89584 -0.920328 0)
(4.19317 -0.825629 0)
(4.49917 -0.696081 0)
(4.83388 -0.514984 0)
(5.16694 -0.315857 0)
(5.5101 -0.122871 0)
(5.89792 0.0586196 0)
(6.28231 0.205156 0)
(6.57372 0.296347 0)
(6.67964 0.316384 0)
(6.62422 0.300087 0)
(6.49933 0.285517 0)
(6.38705 0.280506 0)
(6.36273 0.3087 0)
(6.47926 0.375128 0)
(6.76649 0.442277 0)
(7.15832 0.422661 0)
(7.55871 0.317773 0)
(7.98212 0.291607 0)
(8.39386 0.377142 0)
(8.67414 0.415372 0)
(1.15365 -0.00131161 0)
(2.92795 -0.0144567 0)
(4.10331 -0.0558172 0)
(4.65463 -0.137214 0)
(4.73939 -0.250829 0)
(4.60275 -0.378722 0)
(4.38518 -0.511431 0)
(4.20076 -0.622905 0)
(4.16273 -0.68291 0)
(4.13678 -0.737177 0)
(4.0449 -0.816457 0)
(3.89445 -0.923406 0)
(3.7677 -1.0228 0)
(3.70802 -1.08461 0)
(3.68473 -1.11465 0)
(3.75648 -1.1019 0)
(3.97924 -1.03903 0)
(4.27357 -0.955791 0)
(4.5638 -0.859741 0)
(4.86579 -0.717758 0)
(5.18295 -0.525543 0)
(5.49421 -0.31677 0)
(5.84329 -0.102527 0)
(6.2294 0.0889051 0)
(6.57991 0.21914 0)
(6.78362 0.261558 0)
(6.79054 0.230244 0)
(6.68272 0.188725 0)
(6.54495 0.171288 0)
(6.45766 0.190853 0)
(6.5063 0.2623 0)
(6.73915 0.376722 0)
(7.12939 0.469507 0)
(7.56869 0.426445 0)
(8.0133 0.296579 0)
(8.46548 0.253296 0)
(8.82992 0.275273 0)
(9.03908 0.243889 0)
(1.1632 -0.000450398 0)
(2.98162 -0.00649809 0)
(4.24193 -0.0362767 0)
(4.89641 -0.105718 0)
(5.05644 -0.214282 0)
(4.95492 -0.344932 0)
(4.75717 -0.483637 0)
(4.53144 -0.620052 0)
(4.42098 -0.711656 0)
(4.41142 -0.766148 0)
(4.35186 -0.834753 0)
(4.22451 -0.929245 0)
(4.06712 -1.03975 0)
(3.96932 -1.12726 0)
(3.92411 -1.18315 0)
(3.93292 -1.20179 0)
(4.07813 -1.15942 0)
(4.34343 -1.07506 0)
(4.62832 -0.988049 0)
(4.9058 -0.885599 0)
(5.20342 -0.730498 0)
(5.50058 -0.532717 0)
(5.81318 -0.310256 0)
(6.18093 -0.077148 0)
(6.55163 0.113796 0)
(6.82588 0.214851 0)
(6.9118 0.204478 0)
(6.84817 0.134194 0)
(6.72628 0.0728984 0)
(6.60736 0.0558808 0)
(6.58788 0.107494 0)
(6.75277 0.226795 0)
(7.10982 0.384222 0)
(7.57007 0.480567 0)
(8.03812 0.412385 0)
(8.50919 0.267612 0)
(8.94126 0.187126 0)
(9.22422 0.133506 0)
(9.40465 0.0697618 0)
(1.15749 0.000318817 0)
(2.99866 0.000675251 0)
(4.32994 -0.0171727 0)
(5.08684 -0.0721024 0)
(5.33839 -0.170981 0)
(5.28576 -0.301113 0)
(5.11192 -0.444099 0)
(4.887 -0.592521 0)
(4.70155 -0.720306 0)
(4.66741 -0.793737 0)
(4.64654 -0.858345 0)
(4.55156 -0.943476 0)
(4.39171 -1.05044 0)
(4.25125 -1.15409 0)
(4.18358 -1.23217 0)
(4.1613 -1.28455 0)
(4.22803 -1.28245 0)
(4.42959 -1.20899 0)
(4.69164 -1.10925 0)
(4.94748 -1.01583 0)
(5.2165 -0.899396 0)
(5.50647 -0.734197 0)
(5.79846 -0.531125 0)
(6.13761 -0.291303 0)
(6.5171 -0.0500836 0)
(6.84025 0.124216 0)
(6.9981 0.180661 0)
(6.9791 0.125878 0)
(6.8863 0.0327196 0)
(6.77822 -0.0444501 0)
(6.72133 -0.0544576 0)
(6.821 0.0344902 0)
(7.12011 0.200575 0)
(7.57068 0.385273 0)
(8.06767 0.469538 0)
(8.55545 0.379601 0)
(9.02344 0.211968 0)
(9.3815 0.0746614 0)
(9.60047 -0.0335595 0)
(9.81787 -0.0897041 0)
(1.13909 0.000947926 0)
(2.98408 0.00671756 0)
(4.37075 6.19921e-05 0)
(5.22187 -0.0392792 0)
(5.57659 -0.123451 0)
(5.59093 -0.248306 0)
(5.44642 -0.394376 0)
(5.2395 -0.547788 0)
(5.01579 -0.699756 0)
(4.91326 -0.808192 0)
(4.91805 -0.877721 0)
(4.86212 -0.960618 0)
(4.72345 -1.06183 0)
(4.55073 -1.17183 0)
(4.44879 -1.26325 0)
(4.41303 -1.33761 0)
(4.42842 -1.38258 0)
(4.55467 -1.35238 0)
(4.77555 -1.25401 0)
(5.00597 -1.14402 0)
(5.23369 -1.03701 0)
(5.49691 -0.901397 0)
(5.78248 -0.728586 0)
(6.09803 -0.515074 0)
(6.47176 -0.261329 0)
(6.8333 -0.0289938 0)
(7.06684 0.107981 0)
(7.10447 0.112467 0)
(7.02551 0.0304529 0)
(6.93155 -0.0744849 0)
(6.87272 -0.159368 0)
(6.93407 -0.1529 0)
(7.17858 -0.0263137 0)
(7.58895 0.176399 0)
(8.09322 0.371147 0)
(8.61048 0.435434 0)
(9.10564 0.319254 0)
(9.51654 0.111048 0)
(9.79128 -0.077917 0)
(10.0082 -0.204726 0)
(10.292 -0.228504 0)
(1.11036 0.00149545 0)
(2.94382 0.011617 0)
(4.36994 0.0146203 0)
(5.30233 -0.00969352 0)
(5.76334 -0.0753186 0)
(5.86279 -0.189013 0)
(5.76275 -0.334563 0)
(5.57543 -0.492542 0)
(5.34979 -0.654609 0)
(5.176 -0.797554 0)
(5.15855 -0.888008 0)
(5.15172 -0.970069 0)
(5.04468 -1.07247 0)
(4.86408 -1.18495 0)
(4.71513 -1.28573 0)
(4.66111 -1.36674 0)
(4.65636 -1.44022 0)
(4.71563 -1.46897 0)
(4.88037 -1.41013 0)
(5.09023 -1.29682 0)
(5.28517 -1.1787 0)
(5.49567 -1.05088 0)
(5.75526 -0.894864 0)
(6.05467 -0.711497 0)
(6.41452 -0.483298 0)
(6.80107 -0.228712 0)
(7.10258 -0.0247991 0)
(7.22415 0.0568962 0)
(7.17893 0.0157088 0)
(7.08132 -0.0795375 0)
(7.0149 -0.187662 0)
(7.0583 -0.264702 0)
(7.27243 -0.234598 0)
(7.6439 -0.0787041 0)
(8.12804 0.145828 0)
(8.66477 0.335543 0)
(9.19471 0.371832 0)
(9.6484 0.217835 0)
(9.97076 -0.0338224 0)
(10.2119 -0.248445 0)
(10.4693 -0.365826 0)
(10.8077 -0.348062 0)
(1.07325 0.00197243 0)
(2.88317 0.01566 0)
(4.33448 0.0262182 0)
(5.33465 0.0154674 0)
(5.89281 -0.0306934 0)
(6.09205 -0.126495 0)
(6.05591 -0.265673 0)
(5.89651 -0.427626 0)
(5.68259 -0.595264 0)
(5.46971 -0.759197 0)
(5.38556 -0.882587 0)
(5.40858 -0.968975 0)
(5.34901 -1.07326 0)
(5.18364 -1.19248 0)
(4.99226 -1.30483 0)
(4.89593 -1.3888 0)
(4.88074 -1.46434 0)
(4.90095 -1.53289 0)
(4.9995 -1.53736 0)
(5.1796 -1.45639 0)
(5.3655 -1.3379 0)
(5.53625 -1.21045 0)
(5.74433 -1.0584 0)
(6.01231 -0.882254 0)
(6.34691 -0.681494 0)
(6.74045 -0.441366 0)
(7.09772 -0.203361 0)
(7.30892 -0.0474752 0)
(7.33424 -0.0268585 0)
(7.25421 -0.101521 0)
(7.17256 -0.203675 0)
(7.18137 -0.301505 0)
(7.36729 -0.352957 0)
(7.72255 -0.300534 0)
(8.18739 -0.128793 0)
(8.72492 0.100359 0)
(9.28534 0.269519 0)
(9.78435 0.26961 0)
(10.1494 0.0731247 0)
(10.4136 -0.204508 0)
(10.6709 -0.417328 0)
(10.9712 -0.512053 0)
(11.3381 -0.451819 0)
(1.02947 0.00236787 0)
(2.80663 0.0188267 0)
(4.27151 0.0352966 0)
(5.32766 0.0360695 0)
(5.96579 0.00704543 0)
(6.26859 -0.065543 0)
(6.31485 -0.190513 0)
(6.20239 -0.351443 0)
(6.00511 -0.526189 0)
(5.7842 -0.700599 0)
(5.6311 -0.854463 0)
(5.62971 -0.95947 0)
(5.6288 -1.0592 0)
(5.49737 -1.18719 0)
(5.29113 -1.31615 0)
(5.13351 -1.41462 0)
(5.08855 -1.48214 0)
(5.08948 -1.55388 0)
(5.12959 -1.60764 0)
(5.26093 -1.58494 0)
(5.44224 -1.49275 0)
(5.60398 -1.37561 0)
(5.76993 -1.23532 0)
(5.99566 -1.06003 0)
(6.29122 -0.863409 0)
(6.66056 -0.640729 0)
(7.04789 -0.398272 0)
(7.34024 -0.193392 0)
(7.46022 -0.10003 0)
(7.43137 -0.134882 0)
(7.35734 -0.23514 0)
(7.33568 -0.336974 0)
(7.46539 -0.40588 0)
(7.79139 -0.422096 0)
(8.25514 -0.355064 0)
(8.79766 -0.182236 0)
(9.38004 0.0301429 0)
(9.92058 0.166704 0)
(10.3345 0.126215 0)
(10.6211 -0.103327 0)
(10.8756 -0.38026 0)
(11.1649 -0.575106 0)
(11.4875 -0.643862 0)
(11.863 -0.542769 0)
(0.980857 0.0027089 0)
(2.71842 0.021155 0)
(4.18763 0.0422019 0)
(5.28845 0.0524803 0)
(5.99214 0.0372784 0)
(6.38556 -0.0120384 0)
(6.52712 -0.114078 0)
(6.48217 -0.26493 0)
(6.31606 -0.444657 0)
(6.10114 -0.628805 0)
(5.90895 -0.803064 0)
(5.84159 -0.937878 0)
(5.8685 -1.03749 0)
(5.79614 -1.16242 0)
(5.60287 -1.30954 0)
(5.39735 -1.43625 0)
(5.29488 -1.51272 0)
(5.27183 -1.56816 0)
(5.26924 -1.63106 0)
(5.33372 -1.65853 0)
(5.49338 -1.6122 0)
(5.66623 -1.52092 0)
(5.81465 -1.40566 0)
(6.00277 -1.24883 0)
(6.26596 -1.0543 0)
(6.59539 -0.836602 0)
(6.96998 -0.594809 0)
(7.31159 -0.362044 0)
(7.52799 -0.204952 0)
(7.5849 -0.178226 0)
(7.54927 -0.261058 0)
(7.52264 -0.38141 0)
(7.60252 -0.468652 0)
(7.86447 -0.492918 0)
(8.30265 -0.474148 0)
(8.86011 -0.401087 0)
(9.47745 -0.247522 0)
(10.0578 -0.0718969 0)
(10.5193 0.0262 0)
(10.8451 -0.05266 0)
(11.093 -0.294089 0)
(11.3646 -0.547576 0)
(11.671 -0.720738 0)
(11.999 -0.761321 0)
(12.3686 -0.624902 0)
(0.929663 0.00290281 0)
(2.62285 0.0226329 0)
(4.08861 0.0470335 0)
(5.22261 0.0648983 0)
(5.98457 0.0616464 0)
(6.44634 0.0305373 0)
(6.6832 -0.0435196 0)
(6.71981 -0.173765 0)
(6.60791 -0.348328 0)
(6.40917 -0.542892 0)
(6.20629 -0.732207 0)
(6.077 -0.896815 0)
(6.07334 -1.0138 0)
(6.06239 -1.12507 0)
(5.91039 -1.27766 0)
(5.68996 -1.43504 0)
(5.52304 -1.54682 0)
(5.45771 -1.60223 0)
(5.42244 -1.6479 0)
(5.41636 -1.69048 0)
(5.51726 -1.68315 0)
(5.69483 -1.62304 0)
(5.85431 -1.5405 0)
(6.01654 -1.42141 0)
(6.25249 -1.24748 0)
(6.55609 -1.0384 0)
(6.9011 -0.801367 0)
(7.24814 -0.550008 0)
(7.5285 -0.340024 0)
(7.68249 -0.240626 0)
(7.7216 -0.276904 0)
(7.72411 -0.402766 0)
(7.7801 -0.533214 0)
(7.97637 -0.588304 0)
(8.3545 -0.56124 0)
(8.89355 -0.512236 0)
(9.54759 -0.445642 0)
(10.1915 -0.335143 0)
(10.7025 -0.208575 0)
(11.0744 -0.149003 0)
(11.3393 -0.255495 0)
(11.5796 -0.483046 0)
(11.8648 -0.703564 0)
(12.1708 -0.854969 0)
(12.4948 -0.865835 0)
(12.8454 -0.702609 0)
(0.878199 0.00289396 0)
(2.52452 0.0231583 0)
(3.98041 0.049683 0)
(5.13585 0.0734379 0)
(5.9509 0.081278 0)
(6.46492 0.0631546 0)
(6.78049 0.0147262 0)
(6.9044 -0.0866868 0)
(6.86334 -0.242688 0)
(6.70098 -0.438492 0)
(6.50137 -0.642583 0)
(6.3411 -0.831341 0)
(6.27792 -0.980283 0)
(6.28214 -1.09022 0)
(6.19517 -1.22562 0)
(5.99052 -1.39999 0)
(5.78253 -1.55603 0)
(5.66031 -1.64653 0)
(5.59356 -1.68737 0)
(5.53196 -1.71967 0)
(5.54434 -1.7271 0)
(5.68567 -1.68454 0)
(5.86297 -1.62274 0)
(6.0225 -1.54737 0)
(6.23417 -1.41691 0)
(6.52164 -1.23063 0)
(6.84606 -1.01025 0)
(7.18237 -0.759849 0)
(7.49087 -0.512901 0)
(7.71673 -0.339973 0)
(7.84264 -0.299899 0)
(7.91032 -0.393536 0)
(7.98455 -0.556461 0)
(8.13773 -0.683203 0)
(8.44258 -0.693226 0)
(8.93121 -0.61457 0)
(9.58296 -0.543988 0)
(10.2893 -0.503979 0)
(10.8784 -0.454763 0)
(11.3005 -0.377922 0)
(11.6031 -0.351662 0)
(11.8323 -0.467266 0)
(12.0748 -0.662448 0)
(12.3598 -0.850472 0)
(12.6559 -0.978561 0)
(12.9671 -0.961112 0)
(13.292 -0.778236 0)
(0.828633 0.00272955 0)
(2.42736 0.0226633 0)
(3.86944 0.0502054 0)
(5.03452 0.0779759 0)
(5.89279 0.0958938 0)
(6.45648 0.0892246 0)
(6.82623 0.058755 0)
(7.03396 -0.0117777 0)
(7.06809 -0.139367 0)
(6.9635 -0.319513 0)
(6.78026 -0.531131 0)
(6.61209 -0.739544 0)
(6.50582 -0.922116 0)
(6.47567 -1.057 0)
(6.43621 -1.17389 0)
(6.27654 -1.33632 0)
(6.05767 -1.52172 0)
(5.88387 -1.6659 0)
(5.7811 -1.73819 0)
(5.6853 -1.76983 0)
(5.61393 -1.77825 0)
(5.67083 -1.73911 0)
(5.83693 -1.67098 0)
(6.00615 -1.61407 0)
(6.20135 -1.5349 0)
(6.47686 -1.39156 0)
(6.79248 -1.19944 0)
(7.11658 -0.970519 0)
(7.43789 -0.7171 0)
(7.71381 -0.49228 0)
(7.91126 -0.366591 0)
(8.05263 -0.382301 0)
(8.18084 -0.527696 0)
(8.33919 -0.718439 0)
(8.58706 -0.829405 0)
(9.00214 -0.786212 0)
(9.61932 -0.659481 0)
(10.3494 -0.584596 0)
(11.0179 -0.592647 0)
(11.5145 -0.607914 0)
(11.8647 -0.572006 0)
(12.1159 -0.570751 0)
(12.3247 -0.675913 0)
(12.5673 -0.832138 0)
(12.8415 -0.990119 0)
(13.1206 -1.09408 0)
(13.4129 -1.0506 0)
(13.712 -0.852303 0)
(0.782693 0.00244265 0)
(2.33421 0.0214018 0)
(3.76105 0.0488763 0)
(4.92648 0.0785928 0)
(5.81235 0.104476 0)
(6.4273 0.11049 0)
(6.83536 0.0918655 0)
(7.1108 0.0469605 0)
(7.22116 -0.0484996 0)
(7.18192 -0.200008 0)
(7.03494 -0.401156 0)
(6.86793 -0.62136 0)
(6.74586 -0.829983 0)
(6.67576 -1.0042 0)
(6.63471 -1.13248 0)
(6.52956 -1.26699 0)
(6.3253 -1.45025 0)
(6.11947 -1.63438 0)
(5.97533 -1.76223 0)
(5.86063 -1.82492 0)
(5.73841 -1.84665 0)
(5.69434 -1.81705 0)
(5.80191 -1.73164 0)
(5.97088 -1.65202 0)
(6.15337 -1.59446 0)
(6.41218 -1.50017 0)
(6.72841 -1.3499 0)
(7.04867 -1.15604 0)
(7.37302 -0.923287 0)
(7.68563 -0.68246 0)
(7.94481 -0.495634 0)
(8.15412 -0.420145 0)
(8.34384 -0.488723 0)
(8.54225 -0.678772 0)
(8.78203 -0.887968 0)
(9.13049 -0.972029 0)
(9.68157 -0.868459 0)
(10.4021 -0.705158 0)
(11.1201 -0.651047 0)
(11.695 -0.717653 0)
(12.1065 -0.784262 0)
(12.4027 -0.780501 0)
(12.6152 -0.794217 0)
(12.8135 -0.87622 0)
(13.05 -0.994064 0)
(13.3047 -1.12463 0)
(13.5619 -1.20365 0)
(13.834 -1.13622 0)
(14.1088 -0.924227 0)
(0.741267 0.00211432 0)
(2.24672 0.0196015 0)
(3.65845 0.046341 0)
(4.81997 0.0759262 0)
(5.71658 0.106648 0)
(6.3759 0.125605 0)
(6.82229 0.118421 0)
(7.1416 0.0905153 0)
(7.32615 0.0256074 0)
(7.35155 -0.0935802 0)
(7.25666 -0.267161 0)
(7.10163 -0.482662 0)
(6.97382 -0.705452 0)
(6.88645 -0.912507 0)
(6.81911 -1.0804 0)
(6.73889 -1.21101 0)
(6.57283 -1.36689 0)
(6.35232 -1.55902 0)
(6.16799 -1.73186 0)
(6.03258 -1.84659 0)
(5.89458 -1.9066 0)
(5.7775 -1.91062 0)
(5.7929 -1.83356 0)
(5.93422 -1.71564 0)
(6.10513 -1.63163 0)
(6.3354 -1.55882 0)
(6.64512 -1.44867 0)
(6.97044 -1.2977 0)
(7.29947 -1.10326 0)
(7.63749 -0.877023 0)
(7.94802 -0.666121 0)
(8.22016 -0.524468 0)
(8.47492 -0.499132 0)
(8.72388 -0.618241 0)
(8.98959 -0.845689 0)
(9.31279 -1.06359 0)
(9.79141 -1.10453 0)
(10.4652 -0.938514 0)
(11.203 -0.763421 0)
(11.8416 -0.750858 0)
(12.3159 -0.870235 0)
(12.662 -0.971426 0)
(12.9155 -0.994014 0)
(13.1037 -1.01336 0)
(13.2944 -1.06708 0)
(13.5159 -1.1505 0)
(13.745 -1.25565 0)
(13.9801 -1.30824 0)
(14.2321 -1.21843 0)
(14.4849 -0.993755 0)
(0.704716 0.00174427 0)
(2.16541 0.0176107 0)
(3.56241 0.0432503 0)
(4.72086 0.0714024 0)
(5.61567 0.103077 0)
(6.30251 0.132276 0)
(6.79258 0.139414 0)
(7.14028 0.123178 0)
(7.38484 0.0827201 0)
(7.47628 -0.00519117 0)
(7.43694 -0.145366 0)
(7.31278 -0.33764 0)
(7.18068 -0.559375 0)
(7.08861 -0.782103 0)
(7.00719 -0.988813 0)
(6.91734 -1.15389 0)
(6.78879 -1.29451 0)
(6.57748 -1.46779 0)
(6.35755 -1.65568 0)
(6.18823 -1.81262 0)
(6.04499 -1.92116 0)
(5.90082 -1.97893 0)
(5.83175 -1.95389 0)
(5.91361 -1.8331 0)
(6.07037 -1.70047 0)
(6.26877 -1.60505 0)
(6.55363 -1.50825 0)
(6.87877 -1.38967 0)
(7.21324 -1.23846 0)
(7.57142 -1.04684 0)
(7.92657 -0.842664 0)
(8.25173 -0.671636 0)
(8.56711 -0.574739 0)
(8.87653 -0.600448 0)
(9.18333 -0.766271 0)
(9.51686 -1.02581 0)
(9.94796 -1.235 0)
(10.5537 -1.21195 0)
(11.2749 -0.998774 0)
(11.9589 -0.841284 0)
(12.4974 -0.87846 0)
(12.887 -1.03701 0)
(13.1837 -1.16007 0)
(13.4071 -1.20435 0)
(13.5809 -1.22308 0)
(13.7606 -1.24897 0)
(13.9594 -1.30295 0)
(14.1614 -1.38275 0)
(14.3758 -1.40799 0)
(14.6082 -1.29704 0)
(14.8415 -1.06034 0)
(0.67318 0.00138731 0)
(2.09045 0.0154969 0)
(3.47159 0.0399714 0)
(4.63109 0.0664982 0)
(5.51961 0.0959779 0)
(6.21386 0.130053 0)
(6.74441 0.152257 0)
(7.12131 0.148459 0)
(7.40344 0.124737 0)
(7.56089 0.0655893 0)
(7.57415 -0.0434172 0)
(7.49428 -0.202192 0)
(7.37025 -0.406811 0)
(7.27062 -0.629079 0)
(7.19076 -0.85303 0)
(7.08888 -1.06145 0)
(6.96792 -1.22678 0)
(6.78976 -1.38252 0)
(6.54973 -1.56352 0)
(6.33634 -1.73693 0)
(6.1713 -1.87913 0)