/*--------------------------------*- C++ -*----------------------------------*\
| =========                 |                                                 |
| \\      /  F ield         | OpenFOAM: The Open Source CFD Toolbox           |
|  \\    /   O peration     | Version:  2412                                  |
|   \\  /    A nd           | Website:  www.openfoam.com                      |
|    \\/     M anipulation  |                                                 |
\*---------------------------------------------------------------------------*/
FoamFile
{
    version     2.0;
    format      ascii;
    arch        "LSB;label=32;scalar=64";
    class       volScalarField;
    location    "0.1";
    object      rho;
}
// * * * * * * * * * * * * * * * * * * * * * * * * * * * * * * * * * * * * * //

dimensions      [1 -3 0 0 0 0 0];

internalField   nonuniform List<scalar> 
12008
(
2.201001448
2.200910148
2.200727275
2.200450813
2.200078282
2.199606425
2.199031323
2.198348578
2.19755354
2.196641558
2.195608258
2.194449834
2.193163344
2.191747013
2.190200527
2.188525316
2.186724805
2.184804635
2.182772834
2.180639945
2.178419096
2.176126023
2.173779036
2.171398944
2.16900893
2.166634377
2.164302651
2.162042825
2.159885335
2.157861556
2.15600327
2.15434209
2.152908765
2.151732262
2.150838849
2.150251065
2.149986621
2.150055673
2.150461779
2.15121679
2.152305732
2.153711623
2.155410153
2.157370175
2.159554637
2.161921856
2.16442705
2.167023986
2.169666632
2.172310705
2.174914988
2.177442357
2.179860456
2.182142018
2.184264874
2.186211678
2.18796942
2.189528787
2.190883429
2.192029218
2.19296352
2.193684539
2.19419076
2.194480062
2.194552581
2.194406525
2.194038925
2.193446895
2.192627686
2.191579126
2.190300207
2.188791803
2.187057477
2.18510434
2.182943884
2.180592694
2.178072972
2.175412773
2.172645877
2.169811282
2.166952294
2.164115279
2.161348158
2.158698765
2.156213215
2.153934392
2.151900665
2.150144892
2.148693735
2.147567258
2.146778806
2.14633803
2.146239539
2.14647924
2.147049377
2.147936527
2.149123371
2.150589215
2.152310464
2.154261045
2.156412806
2.158735886
2.161199085
2.163770263
2.166416783
2.169106004
2.171805842
2.174485366
2.177115429
2.179669285
2.18212315
2.184456685
2.186653344
2.188700577
2.190589874
2.192316644
2.193879953
2.19528215
2.196528395
2.197626149
2.198584638
2.199414334
2.200126472
2.20073262
2.201244317
2.20167277
2.20202863
2.202321823
2.202561443
2.20275569
2.202911846
2.203036288
2.203134521
2.203211225
2.203270316
2.203315004
2.203347858
2.203370859
2.20338545
2.203392553
2.200934864
2.200841093
2.200653181
2.200369183
2.199986655
2.19950235
2.198912333
2.198212173
2.197397176
2.196462651
2.195404193
2.194217974
2.192901046
2.191451648
2.189869507
2.188156118
2.186314999
2.184351911
2.182275029
2.18009506
2.177825317
2.175481729
2.173082808
2.170649569
2.168205409
2.165775942
2.163388794
2.161073349
2.158860438
2.156781947
2.154870341
2.153158027
2.151676585
2.150456017
2.149523762
2.148903672
2.148614952
2.14866821
2.149062275
2.149822486
2.150927163
2.15235986
2.154096017
2.156103678
2.158344527
2.160775269
2.163349282
2.16601839
2.168734648
2.171451994
2.174127654
2.176723219
2.17920534
2.181546022
2.183722598
2.185717402
2.187517229
2.18911263
2.190497139
2.191666484
2.192617834
2.193349129
2.193858508
2.194142412
2.194202273
2.194035158
2.193637292
2.193005315
2.192136054
2.191027027
2.189677086
2.188087197
2.18626131
2.184207277
2.181937719
2.179470767
2.176830566
2.174047457
2.171157763
2.168203146
2.165229546
2.162285767
2.159421835
2.156687243
2.154129265
2.151791447
2.149712376
2.147924775
2.146454905
2.145322257
2.144539439
2.144117758
2.144045609
2.144321076
2.144935882
2.145875811
2.147122757
2.148655241
2.150448887
2.152476855
2.154710243
2.157118461
2.159669603
2.162330847
2.165068884
2.167850407
2.170642659
2.173414028
2.176134668
2.178777125
2.181316922
2.183733048
2.186008346
2.188129729
2.190088252
2.191879007
2.193500871
2.194956123
2.196249977
2.19739005
2.19838581
2.199248038
2.199988328
2.200618632
2.201150886
2.201596694
2.20196709
2.202272362
2.202521942
2.202724334
2.202887099
2.203016857
2.203119325
2.203199366
2.203261049
2.203307713
2.203342028
2.203366057
2.203381315
2.203388841
2.200800987
2.200702141
2.200504033
2.200204743
2.199801841
2.199292033
2.198671278
2.197934986
2.197078285
2.196096295
2.194984428
2.1937387
2.19235605
2.190834659
2.18917427
2.187376485
2.185445036
2.183386013
2.181208041
2.178922403
2.176543093
2.174086823
2.17157296
2.169023429
2.166462571
2.163916962
2.161415205
2.158987686
2.15666628
2.154483985
2.152474471
2.150671481
2.149108076
2.147815774
2.146823665
2.146157342
2.145837738
2.14587655
2.146266129
2.147048946
2.148195683
2.149689858
2.151506124
2.153610953
2.155963756
2.158518416
2.161225123
2.164032368
2.166888931
2.169745722
2.172557317
2.17528311
2.177888025
2.180342794
2.182623837
2.184712853
2.186596167
2.188263935
2.189709289
2.190927478
2.191915079
2.192669293
2.193187373
2.193462997
2.193500032
2.193292594
2.192835734
2.192125085
2.191156632
2.189927317
2.188435793
2.18668332
2.184674757
2.182419582
2.179932832
2.177235869
2.17435684
2.171330734
2.168198961
2.165008428
2.161810162
2.158657585
2.155604587
2.15270361
2.150003889
2.147550005
2.145380814
2.143528743
2.142019412
2.140871526
2.140097062
2.139710221
2.139687076
2.140032241
2.140735709
2.141781923
2.143151246
2.1448205
2.146763476
2.148951422
2.15135349
2.153937167
2.156668696
2.159513509
2.16243668
2.165403414
2.168379578
2.171332276
2.174230449
2.177045491
2.179751824
2.182327412
2.184754157
2.187018156
2.1891098
2.191023689
2.192758405
2.194316135
2.195702189
2.19692446
2.197992844
2.198918672
2.199714178
2.200392015
2.200964846
2.201445009
2.201844258
2.202173567
2.20244301
2.202661683
2.202837681
2.2029781
2.203089074
2.203175826
2.203242728
2.203293372
2.20333063
2.203356722
2.203373269
2.203381445
2.200596925
2.200490194
2.200276218
2.199953074
2.199518291
2.198968425
2.198299172
2.197505606
2.196582463
2.195524459
2.194326619
2.192984618
2.191495136
2.189856214
2.188067611
2.186131137
2.18405096
2.181833858
2.179489411
2.177030114
2.174471421
2.171831706
2.169132154
2.166396608
2.163651361
2.160924928
2.158247801
2.155652183
2.153171694
2.150841035
2.148695562
2.146770723
2.145101321
2.143720629
2.142659485
2.14194523
2.141600386
2.141636858
2.142041377
2.14287318
2.144095914
2.145692177
2.147635349
2.149889624
2.152411263
2.155150298
2.158052613
2.161062213
2.164123502
2.167183351
2.170192818
2.173108399
2.175892762
2.178514959
2.180950181
2.183179212
2.185187631
2.186964888
2.188503342
2.189797321
2.190842283
2.191634083
2.192168336
2.192434974
2.192440943
2.192175417
2.19163215
2.190805249
2.189689512
2.188281157
2.186578729
2.184584173
2.182303979
2.17975034
2.17694218
2.17390592
2.170675837
2.167293893
2.163808966
2.160275488
2.156751591
2.15329693
2.149970425
2.146828163
2.143921658
2.14129659
2.138992049
2.137040182
2.135466098
2.134287905
2.133520677
2.133176449
2.1332202
2.133665224
2.13449938
2.135705278
2.137260898
2.139140187
2.141313676
2.143749092
2.146411948
2.149266121
2.152274409
2.155399072
2.15860236
2.161847024
2.165096838
2.16831712
2.171475278
2.174541356
2.177488573
2.180293804
2.182937982
2.185406362
2.187688646
2.189778934
2.191675513
2.193380502
2.194899369
2.19624038
2.197414001
2.198432292
2.199308341
2.200055743
2.200688155
2.201218925
2.201660802
2.202025727
2.202324681
2.202567605
2.202763359
2.202919728
2.203043453
2.203140281
2.203215033
2.203271672
2.203313374
2.203342594
2.203361128
2.203370278
2.200318812
2.200201035
2.199964811
2.199608175
2.199128533
2.198522143
2.197784244
2.196909328
2.195891483
2.194724753
2.193403528
2.191922935
2.190279253
2.188470335
2.186496022
2.184358547
2.182062886
2.179617055
2.17703231
2.17432325
2.171507814
2.168607166
2.165645498
2.162649759
2.159649341
2.156675755
2.153762304
2.150943773
2.148256133
2.145736223
2.143421377
2.141348925
2.1395555
2.138076133
2.136943346
2.136186132
2.135828472
2.135879638
2.136324489
2.137237484
2.13857482
2.140318257
2.14243934
2.144899316
2.147650442
2.150637875
2.153802041
2.157081263
2.160414401
2.163743245
2.167014462
2.170180971
2.17320269
2.176046664
2.178686646
2.181102323
2.183278334
2.185203165
2.186868043
2.188265914
2.189390548
2.190235822
2.190794207
2.191052884
2.191019635
2.190678616
2.190021556
2.189040647
2.187729286
2.186082998
2.184100555
2.18178524
2.179146199
2.176199734
2.172970398
2.169491702
2.165806273
2.161965295
2.158027223
2.154055799
2.150117568
2.146279192
2.142604874
2.139154215
2.135980698
2.133130857
2.130644041
2.128552553
2.126881898
2.125650886
2.124883313
2.12457983
2.12470373
2.125275093
2.126280578
2.127700376
2.129508938
2.131675731
2.13416608
2.136942033
2.139963231
2.143187763
2.146572979
2.150076233
2.153655546
2.15727017
2.160881094
2.164451484
2.167947101
2.171336721
2.174592543
2.177690598
2.180611088
2.183338646
2.185862463
2.188176273
2.19027817
2.192170284
2.193858318
2.195350996
2.19665945
2.197796597
2.198776529
2.199613962
2.200323743
2.200920445
2.201418041
2.20182966
2.202167418
2.202442316
2.202664187
2.202841695
2.202982356
2.203092597
2.203177817
2.203242467
2.203290118
2.203323535
2.203344746
2.203355202
2.199961497
2.199829086
2.199563379
2.199162315
2.198623072
2.197941434
2.197111936
2.196128203
2.194983361
2.193670482
2.192183047
2.190515433
2.188663414
2.186624678
2.18439934
2.181990431
2.179404323
2.176651063
2.173744573
2.170702718
2.167547201
2.164303328
2.16099964
2.157667471
2.154340464
2.151054103
2.147845275
2.144751907
2.141812662
2.139066666
2.136553233
2.134311481
2.132379766
2.130794763
2.129590596
2.128797923
2.128442304
2.128525791
2.129037841
2.130065605
2.13155764
2.133495292
2.13584794
2.138573372
2.141619042
2.144924137
2.148422296
2.152044694
2.155723171
2.159393074
2.162995536
2.166479029
2.169800129
2.172923534
2.175821415
2.178472323
2.180859902
2.182971541
2.184797081
2.186327668
2.187554819
2.188469705
2.18906022
2.189312084
2.189230653
2.188795699
2.187996119
2.186821868
2.185264904
2.183320345
2.180987832
2.178273028
2.17518916
2.171758436
2.168013133
2.16399613
2.15976067
2.155369212
2.150891379
2.14640116
2.141973707
2.137682171
2.13359503
2.129774238
2.126274334
2.123142405
2.120418617
2.118136924
2.11632553
2.115006792
2.114219977
2.113947455
2.114158181
2.114880044
2.116098565
2.117790518
2.119925053
2.122464828
2.125367271
2.128585888
2.13207158
2.135773938
2.139642438
2.143627499
2.147681337
2.151758618
2.15581692
2.159817044
2.163723241
2.167503397
2.171129222
2.174576473
2.177825172
2.180859809
2.183669457
2.186247775
2.188592876
2.190707039
2.192596298
2.194269902
2.195739716
2.197019586
2.198124702
2.199071011
2.199874687
2.200551681
2.201117358
2.201586216
2.201971691
2.202286025
2.202540201
2.202743923
2.202905642
2.203032599
2.203130895
2.20320557
2.20326068
2.203299369
2.203323947
2.203336047
2.199518522
2.199367387
2.199063948
2.198605986
2.197990326
2.197212069
2.196264764
2.195140836
2.193832102
2.192330333
2.19062784
2.188718082
2.186596307
2.184260201
2.181710533
2.178951754
2.175992502
2.172845961
2.169530039
2.166067326
2.162484828
2.158813514
2.155087697
2.151344339
2.147622344
2.1439619
2.140403931
2.136989682
2.133760438
2.130757349
2.128021306
2.125592771
2.123511442
2.121815391
2.120540289
2.119718679
2.119378306
2.119508292
2.120110808
2.121282647
2.122966229
2.125142534
2.127779098
2.130830145
2.134237753
2.137934077
2.14184445
2.145891058
2.149996735
2.154088455
2.158100129
2.161974458
2.165663774
2.169129906
2.172343266
2.175281326
2.177926857
2.180266209
2.182287741
2.18398051
2.185333266
2.186333768
2.186964109
2.187208999
2.187069186
2.186519942
2.185546828
2.184137381
2.182282318
2.179976963
2.17722288
2.174029617
2.170416403
2.166413613
2.1620637
2.157421334
2.152552488
2.147532379
2.142442361
2.13736615
2.132385936
2.127579046
2.123015706
2.118758152
2.11486101
2.111372493
2.108335845
2.105790427
2.103771941
2.102311401
2.101471841
2.101212706
2.101513259
2.102412154
2.103892795
2.105926372
2.10847377
2.111487397
2.114913125
2.118692237
2.122763358
2.127064326
2.131533903
2.136113237
2.140746985
2.145384072
2.149978097
2.154487458
2.158875283
2.16310927
2.167161539
2.171008539
2.174631049
2.178014232
2.181147705
2.184025556
2.186646267
2.1890125
2.191130747
2.193010858
2.194665469
2.196109379
2.197358911
2.198431294
2.199344101
2.200114758
2.200760136
2.201296235
2.201737949
2.20209891
2.202391396
2.202626299
2.202813131
2.202960073
2.203074039
2.203160755
2.203224841
2.203269885
2.203298526
2.203312613
2.198982098
2.198807567
2.198456964
2.197927844
2.197216544
2.196317245
2.195222197
2.193922262
2.192407586
2.190668323
2.188695392
2.186481269
2.184020808
2.181312073
2.178357146
2.175162854
2.171741343
2.168110434
2.164293698
2.160320222
2.156224073
2.152043499
2.14781996
2.143597097
2.139419749
2.135333106
2.131382077
2.127610866
2.124062777
2.120780205
2.117804747
2.115177336
2.11293827
2.111126564
2.109779361
2.108931513
2.108614155
2.108797777
2.109504396
2.110840034
2.112741964
2.115192021
2.118156961
2.121588073
2.125422055
2.129583275
2.133987252
2.13854503
2.143167871
2.147771694
2.152280675
2.156629662
2.160765218
2.164645384
2.168238388
2.171520634
2.17447428
2.1770849
2.17933949
2.181224898
2.182726724
2.183828685
2.184505875
2.184742235
2.184532074
2.183845861
2.182665486
2.180976115
2.178767735
2.176036908
2.172788681
2.169038533
2.164814154
2.160156771
2.155121673
2.149777589
2.144204663
2.138491057
2.132728496
2.127007497
2.121413175
2.116022526
2.110903693
2.106117148
2.101718151
2.097759506
2.094293571
2.091372946
2.089049328
2.087370206
2.08643243
2.086167282
2.086566221
2.087682148
2.089493016
2.091960138
2.095031431
2.098644325
2.102728589
2.107209014
2.112008011
2.117048101
2.122254214
2.127555637
2.132887485
2.138191624
2.14341704
2.148519736
2.153462278
2.158213168
2.162746192
2.16703988
2.171077133
2.174845032
2.178334781
2.181541705
2.184465233
2.187108786
2.189479541
2.191588051
2.193447761
2.195074423
2.196485477
2.197699431
2.198735269
2.199611929
2.200347849
2.200960613
2.201466676
2.201881166
2.202217776
2.202488698
2.202704627
2.202874788
2.203007005
2.203107777
2.20318236
2.20323485
2.203268259
2.203284678
2.198343138
2.198139871
2.197731325
2.197114755
2.196285868
2.19523768
2.193960816
2.192444213
2.190676004
2.188644469
2.186339027
2.183751277
2.180876058
2.177712508
2.174265063
2.170544311
2.166567597
2.162359302
2.157950714
2.153379463
2.148688556
2.143925093
2.139138829
2.134380725
2.129701682
2.125151557
2.120778511
2.116628699
2.112746248
2.109173495
2.105951403
2.103120086
2.100719287
2.098788228
2.09736533
2.096488208
2.096193135
2.096428058
2.097237782
2.098741181
2.100871218
2.10361283
2.106934175
2.110785372
2.115098788
2.119791051
2.124766794
2.129923761
2.135158641
2.14037281
2.145477189
2.150395606
2.155066358
2.159441996
2.163487646
2.167178349
2.170495858
2.17342539
2.175952919
2.178063185
2.17973843
2.180957818
2.181688275
2.181913263
2.181618944
2.180770728
2.179346699
2.177330005
2.174710836
2.171488538
2.167673778
2.163290599
2.158378088
2.152991261
2.14720073
2.141090739
2.134755429
2.128293586
2.121802694
2.115373576
2.109086985
2.103013153
2.097214402
2.091749879
2.086680764
2.082074167
2.078004245
2.074550539
2.071793407
2.069806366
2.068731442
2.068455138
2.06898741
2.070393305
2.072637973
2.075665738
2.079405159
2.083773229
2.088679029
2.094026947
2.099719699
2.105661299
2.111759894
2.117930258
2.124095733
2.13018945
2.136154788
2.141945086
2.147522793
2.152858254
2.157928406
2.162715586
2.167206614
2.171392199
2.175266634
2.1788277
2.182076692
2.185018423
2.187661144
2.190016325
2.192098295
2.193923761
2.195511244
2.196880482
2.198051835
2.199045733
2.199882195
2.200580422
2.201158483
2.201633081
2.202019405
2.202331043
2.202579962
2.202776525
2.202929551
2.203046387
2.203132994
2.203194027
2.203232914
2.203252014
2.197591377
2.197353301
2.196874544
2.196152003
2.195180622
2.193952023
2.192454898
2.19067594
2.188601007
2.186216377
2.183510061
2.180473158
2.177101222
2.173395584
2.169364549
2.165024344
2.160399687
2.155523867
2.150438252
2.145191217
2.139836559
2.134431569
2.129034983
2.123705087
2.118498199
2.113467664
2.108663372
2.104131703
2.099915837
2.09605631
2.092591789
2.089559985
2.086998616
2.084946072
2.083441569
2.082525731
2.082241907
2.082515624
2.083409771
2.085064602
2.087409468
2.090435633
2.09411608
2.098403006
2.103227028
2.108498522
2.114111259
2.119948129
2.125888238
2.131814355
2.137619581
2.143212262
2.148518582
2.153482704
2.158064812
2.162237675
2.165982474
2.169284455
2.172129074
2.174499289
2.176373988
2.177727459
2.178517369
2.17872717
2.17833327
2.177295956
2.175589665
2.17319629
2.170107684
2.166328127
2.161876666
2.15678908
2.151119083
2.144938248
2.138334082
2.131405886
2.124258496
2.116994758
2.109708422
2.102479564
2.095374363
2.08844984
2.081762444
2.075377765
2.069378088
2.063865287
2.058957268
2.054780363
2.051458434
2.049099725
2.047897619
2.047648139
2.048409593
2.050236758
2.053070323
2.056828449
2.061413737
2.066718436
2.072628296
2.079025567
2.085791803
2.092810878
2.099972171
2.107173635
2.1143244
2.121346586
2.128176151
2.134762677
2.141068239
2.147065612
2.152736179
2.158067892
2.16305356
2.167689629
2.171975447
2.17591296
2.179506687
2.182763829
2.18569438
2.188311125
2.190629474
2.192667147
2.194443721
2.195980101
2.197297952
2.19841914
2.199365223
2.200157012
2.200814203
2.201355112
2.201796477
2.202153348
2.202439035
2.202665113
2.202841466
2.202976357
2.203076509
2.203147184
2.203192262
2.203214397
2.196715618
2.196435877
2.195873077
2.195023716
2.193881881
2.19243762
2.190677456
2.188585623
2.186145595
2.183341746
2.180161068
2.17659492
2.172640752
2.168303712
2.163598017
2.158547923
2.153188131
2.147563506
2.141728027
2.135742993
2.129674617
2.123591264
2.117560683
2.111647635
2.105912235
2.100409163
2.095187612
2.090291766
2.085761589
2.081633812
2.077943035
2.074722983
2.072007863
2.069833968
2.068240427
2.067270621
2.06697649
2.06726758
2.068209959
2.069977928
2.072498218
2.075772253
2.079782272
2.084487276
2.089820604
2.095689898
2.101979999
2.108558845
2.115285737
2.122020768
2.12863391
2.135012263
2.141064451
2.14672173
2.151936082
2.156676051
2.160921348
2.164657186
2.167869013
2.170538498
2.172641417
2.174147073
2.175002982
2.175193286
2.174683231
2.173428239
2.171399665
2.168579449
2.164963188
2.160562916
2.155409422
2.149553757
2.143067388
2.136040284
2.128576317
2.120785749
2.11277558
2.10463977
2.096452461
2.088267441
2.080125554
2.072069058
2.064159035
2.056490126
2.049197351
2.04245267
2.036449021
2.03138135
2.02742529
2.024740885
2.023526865
2.02342609
2.024613537
2.027071789
2.030704996
2.0353974
2.041022386
2.047447591
2.054537546
2.062155112
2.070163039
2.07842637
2.086815671
2.09521068
2.103503842
2.111603198
2.119434173
2.126939966
2.134080536
2.140830427
2.147175884
2.153111795
2.158638918
2.163761716
2.168486915
2.172822774
2.176778878
2.180366274
2.183597749
2.186488088
2.189054183
2.191314952
2.193291071
2.195004574
2.196478351
2.19773562
2.198799409
2.199692086
2.200434956
2.201047946
2.201549367
2.201955769
2.202281854
2.202540463
2.202742604
2.202897507
2.203012707
2.203094116
2.203146098
2.203171619
2.195704111
2.195375071
2.19471284
2.193713521
2.192370332
2.190671658
2.188601753
2.18614236
2.183274711
2.179981696
2.176250081
2.172072721
2.167450668
2.16239505
2.156928542
2.151086227
2.144915677
2.138476107
2.131836565
2.125073213
2.118265908
2.111494422
2.104834817
2.098356552
2.092120849
2.086180476
2.080580568
2.07535999
2.070552846
2.066189951
2.062300224
2.058912128
2.056055261
2.053762634
2.052072091
2.051028842
2.050693689
2.050974703
2.051915509
2.053737588
2.056369032
2.059824373
2.064099725
2.069166686
2.074967608
2.081413298
2.088384215
2.095735693
2.10330686
2.110932044
2.118452755
2.125728159
2.132642294
2.139107093
2.14506119
2.150465334
2.155295706
2.159536585
2.163173458
2.166187256
2.168551067
2.170229375
2.171158941
2.171325559
2.170682286
2.169180373
2.166789209
2.163492728
2.159293069
2.15421351
2.148300416
2.141623666
2.134274797
2.126361937
2.118000911
2.109302879
2.100360633
2.091237773
2.081966176
2.072555893
2.063017381
2.053390686
2.043772856
2.034334053
2.02531562
2.017010884
2.009722355
2.003726033
1.999234661
1.996504675
1.995514265
1.995843354
1.997767199
2.001138471
2.005814862
2.01164604
2.018481085
2.026171087
2.034568548
2.043525709
2.052893804
2.062524179
2.07227123
2.081996598
2.091573927
2.100893405
2.109865272
2.118421644
2.126516356
2.134122918
2.141231077
2.147842697
2.153967678
2.159620484
2.164817613
2.16957608
2.173912792
2.177844559
2.181388467
2.184562375
2.187385348
2.189877892
2.192061959
2.193960743
2.195598314
2.196999159
2.198187686
2.199187746
2.200022196
2.200712544
2.201278672
2.201738637
2.202108564
2.202402594
2.202632898
2.202809719
2.202941442
2.203034661
2.203094251
2.203123509
2.194545097
2.194158398
2.193379916
2.192205444
2.190627424
2.188632657
2.186203236
2.183318651
2.179958383
2.176104679
2.171745364
2.166876552
2.161505134
2.155650843
2.149347687
2.142644526
2.135604619
2.128304039
2.120828973
2.113271973
2.105727411
2.098286473
2.091032419
2.084036943
2.077358669
2.071044042
2.06512971
2.059645331
2.054616106
2.050064803
2.046013335
2.042484154
2.039501796
2.03709532
2.035300217
2.034162
2.033748613
2.033989904
2.0348741
2.036670707
2.039331333
2.042877202
2.047322491
2.052657571
2.058841368
2.065795957
2.073404897
2.081516504
2.089952384
2.098520262
2.107029012
2.115303107
2.123193861
2.13058561
2.137396321
2.143573255
2.14908524
2.153913449
2.158042516
2.161452842
2.164115362
2.165990149
2.167003012
2.167142621
2.166349422
2.164571743
2.161778804
2.157959236
2.153125265
2.147315506
2.140595935
2.133058261
2.124814591
2.115987248
2.106693412
2.09702623
2.087037303
2.07672863
2.066062573
2.054993299
2.043513314
2.03170056
2.019751484
2.007988788
1.996836337
1.98677166
1.978228732
1.971552309
1.96696169
1.964718535
1.964279619
1.965561467
1.968605571
1.973191956
1.979130542
1.986248383
1.994386621
2.003396885
2.013135686
2.023458686
2.034217115
2.045257256
2.056422783
2.067559351
2.078520707
2.089175332
2.099412476
2.109146435
2.118318308
2.126894979
2.134865727
2.142237267
2.149028256
2.155264178
2.160973255
2.166183689
2.170922212
2.175213691
2.179081442
2.182547908
2.185635386
2.188366649
2.190765301
2.192855858
2.194663597
2.196214222
2.197533442
2.198646499
2.199577731
2.200350175
2.200985243
2.201502497
2.201919483
2.202251664
2.202512397
2.202712968
2.202862639
2.202968716
2.203036605
2.203069943
2.193227495
2.192774175
2.191861456
2.190485014
2.188636778
2.186302263
2.183461799
2.180093226
2.176175193
2.171690648
2.166630277
2.160995723
2.154802344
2.148081313
2.140880782
2.133265946
2.125317881
2.117131187
2.108810488
2.100465865
2.092207265
2.084138004
2.076348221
2.068909588
2.061873659
2.055274712
2.049134937
2.043469696
2.038291541
2.033612853
2.029447406
2.025811407
2.022724581
2.020212186
2.018306962
2.017053142
2.016521572
2.016694195
2.017470321
2.01914571
2.021746796
2.025278231
2.029776009
2.035254937
2.041698251
2.0490487
2.057202935
2.066011327
2.075284482
2.084806254
2.094351325
2.103704016
2.112674639
2.121110352
2.128899018
2.135966294
2.142267523
2.147776778
2.152475561
2.156343021
2.159348345
2.1614478
2.16255653
2.162667517
2.161709054
2.159628433
2.156397306
2.15201253
2.146500688
2.139920235
2.132360577
2.123936909
2.114779257
2.105014449
2.094741469
2.084004609
2.072774468
2.060951395
2.048403339
2.035035724
2.020870584
2.006105189
1.991135982
1.976544573
1.963030151
1.951321202
1.941954224
1.935260554
1.931530637
1.930347169
1.93107658
1.933867045
1.938409291
1.944443547
1.951761939
1.960197703
1.969610056
1.979873538
1.9908675
2.002466782
2.014535718
2.026926047
2.039478374
2.052026756
2.064405864
2.076459789
2.088051077
2.099068396
2.109431401
2.119091994
2.128032002
2.136258029
2.143794744
2.150677936
2.156948424
2.162647516
2.167814194
2.17248388
2.176688401
2.180456668
2.183815678
2.186791491
2.189410001
2.1916974
2.193680317
2.195385695
2.19684049
2.198071261
2.199103743
2.199962427
2.200670213
2.201248126
2.201715125
2.202087991
2.202381281
2.202607336
2.202776318
2.202896259
2.202973112
2.203010863
2.191741731
2.191212426
2.190146738
2.188540561
2.18638579
2.183667236
2.180364228
2.176453991
2.171915757
2.16673502
2.160907602
2.154443255
2.147368498
2.139728436
2.131587344
2.123027955
2.11414957
2.105065214
2.095898052
2.086776878
2.077830111
2.06917735
2.060919223
2.053127499
2.045841781
2.039075802
2.032828184
2.02709232
2.021862704
2.017138189
2.012923098
2.009227422
2.006066909
2.003464054
2.001449514
2.000065489
1.999379225
1.99945214
2.000071849
2.001546412
2.003997819
2.007405206
2.011827919
2.017308462
2.023860456
2.031456355
2.04001716
2.049407206
2.05943665
2.069872694
2.080458337
2.090935202
2.101065704
2.110650018
2.119534965
2.127614134
2.134820614
2.141114944
2.146471422
2.150865751
2.154265135
2.156622707
2.157843752
2.157927139
2.15679059
2.154382966
2.150681837
2.14569665
2.139473226
2.132094497
2.123676344
2.114356816
2.10427658
2.093549352
2.082224622
2.070252291
2.057468589
2.043628146
2.02849587
2.011976813
1.994224553
1.975681685
1.957067444
1.939346145
1.923601561
1.910896295
1.901708939
1.896396827
1.89453954
1.894972535
1.897773957
1.902481032
1.908739698
1.916288117
1.92494485
1.934584734
1.945111276
1.956441475
1.968492764
1.981171944
1.994367903
2.007948218
2.021759348
2.035630461
2.04938083
2.062830191
2.075810655
2.088178211
2.099821754
2.110668012
2.120681712
2.129861383
2.13823209
2.14583681
2.152728074
2.1589611
2.164589008
2.169660175
2.174217379
2.178298209
2.181936162
2.185161954
2.188004725
2.190492928
2.192654859
2.194518827
2.196113048
2.197465349
2.198602787
2.199551237
2.200335014
2.200976563
2.201496224
2.201912081
2.202239884
2.202493036
2.202682605
2.202817361
2.202903809
2.20294629
2.190080672
2.18946589
2.188228323
2.186364606
2.183867314
2.180721484
2.176906613
2.172400821
2.167185817
2.161251914
2.15460259
2.147258204
2.139258514
2.130663722
2.121554031
2.112027943
2.102199913
2.092198064
2.082162394
2.072242768
2.062594444
2.053367027
2.044686376
2.036631567
2.029224967
2.022445152
2.016250402
2.010598508
2.005456705
2.000805324
1.996637223
1.992956236
1.989775405
1.98711632
1.98500948
1.983496398
1.982639141
1.982551047
1.983007619
1.984230664
1.986445105
1.989624918
1.993849133
1.999187084
2.005685725
2.013354212
2.022148621
2.031960551
2.042613507
2.053869821
2.065448329
2.077049874
2.088385197
2.099199086
2.109286047
2.118495432
2.12672675
2.133917791
2.14002918
2.145029174
2.148881449
2.151536498
2.152891041
2.152951412
2.151627705
2.148873682
2.144677231
2.13906552
2.132108922
2.123919244
2.114640529
2.104429861
2.093425291
2.081700012
2.069208673
2.055744847
2.040945041
2.024379806
2.005740561
1.985050107
1.962762623
1.939709824
1.917020449
1.896167924
1.878795088
1.866514159
1.859518768
1.857153807
1.857676299
1.86102167
1.866298426
1.87306614
1.881012768
1.889941115
1.899740811
1.910353811
1.921742624
1.933875913
1.946716175
1.960209048
1.974275818
1.98880881
2.003669736
2.018691735
2.033685748
2.048451181
2.062789784
2.076520741
2.089494362
2.1016019
2.11277981
2.1230081
2.132303729
2.140710958
2.148290804
2.155111498
2.161241117
2.166742857
2.171672785
2.176079514
2.18000512
2.183486655
2.186557748
2.189249969
2.191593802
2.193619193
2.19535572
2.196832485
2.198077815
2.199118899
2.199981404
2.200689134
2.201263763
2.20172465
2.202088721
2.202370433
2.202581758
2.202732206
2.202828837
2.202876344
2.188240617
2.187531074
2.186103266
2.183955262
2.181081317
2.177467971
2.173096494
2.167947851
2.162008512
2.155276065
2.147763968
2.139504863
2.130552068
2.120979106
2.110877599
2.100354481
2.089530035
2.078538482
2.067532088
2.056687161
2.046206361
2.036304989
2.027175443
2.018928425
2.011561746
2.004987077
1.999087051
1.993757418
1.988921435
1.984532821
1.980570158
1.977031554
1.973929329
1.971287053
1.969138256
1.967526971
1.966515008
1.966218413
1.966525442
1.967477052
1.969375969
1.972249542
1.976172863
1.98123935
1.987529882
1.995094531
2.003933055
2.013977062
2.025078774
2.037011072
2.049481188
2.062156504
2.074697028
2.086786982
2.098158635
2.108604439
2.117977062
2.126179597
2.133149685
2.138841989
2.143213329
2.146211367
2.147725973
2.147772334
2.146257377
2.143143776
2.138435001
2.132181702
2.124484284
2.115487247
2.10536267
2.094279116
2.082352111
2.069576249
2.055750999
2.040435139
2.022991759
2.002787809
1.979536439
1.953598707
1.925963645
1.897938237
1.870962477
1.847207215
1.829269116
1.820489141
1.817835494
1.819146866
1.823743811
1.830369192
1.838119396
1.846768159
1.85615251
1.866188174
1.876855559
1.888166941
1.900142042
1.91279867
1.926143119
1.94016113
1.954810649
1.970015834
1.985662937
2.001599546
2.017638529
2.033567361
2.049162423
2.064206587
2.07850732
2.091912056
2.104318013
2.115674907
2.125980762
2.135272465
2.143613652
2.151082459
2.157761139
2.163728588
2.169056011
2.173805284
2.178029266
2.181773262
2.185076902
2.187975976
2.190503893
2.192692678
2.194573498
2.196176801
2.197532182
2.198668095
2.19961149
2.20038747
2.201018992
2.201526644
2.201928504
2.20224006
2.202474181
2.202641108
2.202748451
2.202801251
2.186222259
2.185409288
2.183774246
2.181317523
2.178036309
2.173920281
2.168954458
2.163124939
2.156425374
2.148862843
2.140462168
2.131267948
2.121343912
2.110769774
2.099636663
2.08804331
2.07609619
2.063917207
2.051661285
2.039541341
2.027850281
2.016948855
2.007195497
1.998794904
1.991705461
1.985693475
1.980488664
1.975875961
1.971705686
1.967892921
1.964400142
1.96122262
1.958375763
1.955890129
1.953807145
1.952178037
1.951067357
1.950581684
1.950754628
1.951452286
1.952984846
1.955512417
1.959064154
1.963758828
1.969710159
1.977009974
1.985706801
1.99578249
2.007132741
2.019558189
2.032770998
2.046417794
2.060114446
2.073484257
2.086190549
2.097957412
2.10857668
2.117902612
2.125837737
2.132314389
2.137277221
2.14066959
2.142376491
2.142422961
2.14071875
2.137240033