/*--------------------------------*- C++ -*----------------------------------*\
| =========                 |                                                 |
| \\      /  F ield         | OpenFOAM: The Open Source CFD Toolbox           |
|  \\    /   O peration     | Version:  5.x                                   |
|   \\  /    A nd           | Web:      www.OpenFOAM.org                      |
|    \\/     M anipulation  |                                                 |
\*---------------------------------------------------------------------------*/
FoamFile
{
    version     2.0;
    format      ascii;
    class       volVectorField;
    location    "0.3";
    object      Urom;
}
// * * * * * * * * * * * * * * * * * * * * * * * * * * * * * * * * * * * * * //

dimensions      [0 1 -1 0 0 0 0];

internalField   nonuniform List<vector> 
17720
(
(0.977797 0.00296725 0)
(0.915007 0.00310997 0)
(2.45028 0.0282521 0)
(0.849077 0.00337473 0)
(2.32015 0.0293436 0)
(3.61267 0.0647154 0)
(0.780984 0.00366415 0)
(2.18541 0.0304129 0)
(3.463 0.0668533 0)
(4.52349 0.102101 0)
(0.713981 0.00371215 0)
(2.0499 0.0305391 0)
(3.3081 0.0685536 0)
(4.38587 0.105403 0)
(5.22754 0.135954 0)
(0.651417 0.0034814 0)
(1.92045 0.0290455 0)
(3.15157 0.0677253 0)
(4.24339 0.108623 0)
(5.10864 0.138953 0)
(5.79162 0.168856 0)
(0.595714 0.00312502 0)
(1.80276 0.0262929 0)
(3.00236 0.0634715 0)
(4.09378 0.107405 0)
(4.99255 0.144345 0)
(5.67594 0.168511 0)
(6.27693 0.204658 0)
(0.548519 0.00267652 0)
(1.69965 0.0228758 0)
(2.8683 0.056923 0)
(3.94532 0.100213 0)
(4.8676 0.145366 0)
(5.57433 0.173591 0)
(6.15239 0.200278 0)
(6.69576 0.240337 0)
(0.510274 0.00220858 0)
(1.61245 0.0190458 0)
(2.75244 0.0494105 0)
(3.81043 0.0889662 0)
(4.73352 0.13753 0)
(5.47381 0.17748 0)
(6.04199 0.201629 0)
(6.57861 0.237465 0)
(7.01989 0.265454 0)
(0.480024 0.00180057 0)
(1.54141 0.0152209 0)
(2.65436 0.0412473 0)
(3.69621 0.076666 0)
(4.60348 0.122027 0)
(5.36387 0.171771 0)
(5.94607 0.204887 0)
(6.45388 0.234877 0)
(6.94469 0.272865 0)
(7.24261 0.27547 0)
(0.45753 0.00117115 0)
(1.48556 0.0116237 0)
(2.57262 0.0330314 0)
(3.60214 0.0641636 0)
(4.49089 0.103701 0)
(5.25024 0.155077 0)
(5.85334 0.200257 0)
(6.34353 0.233565 0)
(6.8358 0.273404 0)
(7.21878 0.293237 0)
(7.41063 0.278999 0)
(0.444404 0.000489559 0)
(1.44439 0.0078573 0)
(2.50609 0.0253307 0)
(3.52375 0.0521833 0)
(4.40002 0.0856935 0)
(5.14512 0.132211 0)
(5.76139 0.18355 0)
(6.24965 0.226088 0)
(6.71682 0.268201 0)
(7.16651 0.305615 0)
(7.40693 0.295286 0)
(7.59188 0.289515 0)
(0.440706 -0.000164278 0)
(1.41856 0.00393184 0)
(2.45428 0.0179435 0)
(3.45661 0.0413176 0)
(4.32723 0.0701457 0)
(5.0543 0.108395 0)
(5.6754 0.159222 0)
(6.16693 0.207002 0)
(6.6097 0.254977 0)
(7.07772 0.305596 0)
(7.41469 0.317306 0)
(7.56732 0.290968 0)
(7.81749 0.309935 0)
(0.443422 -0.000615199 0)
(1.406 0.000644818 0)
(2.41683 0.010437 0)
(3.39948 0.0308446 0)
(4.26497 0.0573338 0)
(4.97845 0.0882636 0)
(5.59479 0.132974 0)
(6.09573 0.180828 0)
(6.51767 0.230907 0)
(6.96983 0.290408 0)
(7.3937 0.331944 0)
(7.59275 0.308268 0)
(7.76584 0.296309 0)
(8.05634 0.325752 0)
(0.447716 -0.000744175 0)
(1.40125 -0.00100432 0)
(2.391 0.00455846 0)
(3.35214 0.0202953 0)
(4.20944 0.0452681 0)
(4.91462 0.0730072 0)
(5.51742 0.109854 0)
(6.0326 0.154705 0)
(6.44076 0.200134 0)
(6.86008 0.261597 0)
(7.32422 0.327118 0)
(7.63175 0.334757 0)
(7.75987 0.294864 0)
(8.01893 0.314009 0)
(8.25292 0.318035 0)
(0.451506 -0.000657499 0)
(1.39721 -0.00121118 0)
(2.37158 0.00196545 0)
(3.31294 0.0120968 0)
(4.16104 0.0330522 0)
(4.86039 0.0590654 0)
(5.44621 0.0911818 0)
(5.96915 0.132175 0)
(6.38196 0.171129 0)
(6.75987 0.224482 0)
(7.21484 0.300972 0)
(7.63138 0.350602 0)
(7.80571 0.317463 0)
(7.97474 0.296206 0)
(8.27839 0.327539 0)
(8.38671 0.284367 0)
(0.455874 -0.000903272 0)
(1.39044 -0.000685741 0)
(2.35248 0.00242241 0)
(3.27947 0.00825208 0)
(4.11889 0.022934 0)
(4.81806 0.0445853 0)
(5.38675 0.0730608 0)
(5.90434 0.111961 0)
(6.33831 0.148151 0)
(6.68439 0.186743 0)
(7.09246 0.258764 0)
(7.56504 0.340668 0)
(7.85981 0.349306 0)
(7.97445 0.299403 0)
(8.24246 0.314653 0)
(8.47656 0.316045 0)
(8.49 0.2456 0)
(0.463215 -0.00110265 0)
(1.38207 -0.00137148 0)
(2.32958 0.00414516 0)
(3.24872 0.00931953 0)
(4.08209 0.0175783 0)
(4.7891 0.032217 0)
(5.34732 0.0527085 0)
(5.84615 0.0889984 0)
(6.30225 0.128337 0)
(6.64654 0.155718 0)
(6.99211 0.208132 0)
(7.45145 0.30077 0)
(7.868 0.363332 0)
(8.02829 0.327269 0)
(8.19442 0.300265 0)
(8.5049 0.330121 0)
(8.5896 0.276558 0)
(8.6006 0.225186 0)
(0.474747 -0.00172203 0)
(1.37613 -0.00263129 0)
(2.30175 0.00376311 0)
(3.21705 0.0122144 0)
(4.04932 0.0179272 0)
(4.77033 0.0259683 0)
(5.335 0.0347609 0)
(5.80725 0.0598367 0)
(6.26968 0.103266 0)
(6.64312 0.132162 0)
(6.94332 0.160177 0)
(7.34076 0.237469 0)
(7.81376 0.337466 0)
(8.09785 0.355812 0)
(8.19904 0.30379 0)
(8.4671 0.319812 0)
(8.68947 0.316787 0)
(8.65641 0.230254 0)
(8.71322 0.223918 0)
(0.48908 -0.0017882 0)
(1.37574 -0.00453398 0)
(2.27193 0.001434 0)
(3.17979 0.0134018 0)
(4.01839 0.0210608 0)
(4.75463 0.0259956 0)
(5.34673 0.0259922 0)
(5.80148 0.0314462 0)
(6.24507 0.0670029 0)
(6.65625 0.107032 0)
(6.95376 0.123367 0)
(7.27866 0.167855 0)
(7.73259 0.269068 0)
(8.13576 0.348986 0)
(8.27691 0.321609 0)
(8.42854 0.297729 0)
(8.73056 0.332854 0)
(8.77656 0.268011 0)
(8.72686 0.199216 0)
(8.80407 0.225778 0)
(0.502726 -0.00152646 0)
(1.38067 -0.00491248 0)
(2.24537 -0.0019859 0)
(3.13393 0.0116759 0)
(3.98357 0.0246414 0)
(4.73504 0.0297369 0)
(5.36764 0.027393 0)
(5.83313 0.0152017 0)
(6.24236 0.0268477 0)
(6.66984 0.0689445 0)
(7.00538 0.0938886 0)
(7.28232 0.110218 0)
(7.67476 0.180362 0)
(8.13306 0.287717 0)
(8.39145 0.322269 0)
(8.46575 0.280624 0)
(8.71541 0.307268 0)
(8.91088 0.307677 0)
(8.81654 0.20361 0)
(8.81257 0.182931 0)
(8.87354 0.218258 0)
(0.510781 -0.000899989 0)
(1.38641 -0.00352199 0)
(2.22616 -0.0039723 0)
(3.08345 0.0068695 0)
(3.93675 0.0258602 0)
(4.70676 0.0353414 0)
(5.37836 0.0354134 0)
(5.88849 0.0162867 0)
(6.27526 -0.000976632 0)
(6.68427 0.0218501 0)
(7.06779 0.057424 0)
(7.34324 0.0677403 0)
(7.66636 0.100919 0)
(8.11576 0.19169 0)
(8.49219 0.274863 0)
(8.59912 0.262742 0)
(8.71633 0.25365 0)
(8.99432 0.304388 0)
(8.99269 0.235 0)
(8.8707 0.146715 0)
(8.90472 0.166371 0)
(8.94027 0.197488 0)
(0.509566 0.000174858 0)
(1.38655 -1.78903e-06 0)
(2.21423 -0.00265627 0)
(3.03879 0.00222897 0)
(3.87764 0.0215581 0)
(4.66546 0.0398794 0)
(5.36639 0.0452425 0)
(5.94016 0.0309363 0)
(6.34194 -0.00520829 0)
(6.71521 -0.0163925 0)
(7.12015 0.0110921 0)
(7.43681 0.0287876 0)
(7.71049 0.039801 0)
(8.11054 0.0977009 0)
(8.5551 0.18765 0)
(8.78032 0.22058 0)
(8.81234 0.193256 0)
(9.02423 0.240773 0)
(9.1903 0.255148 0)
(9.0293 0.136244 0)
(8.96077 0.101315 0)
(9.00139 0.137365 0)
(9.01846 0.163338 0)
(0.500262 0.000906412 0)
(1.3778 0.00352306 0)
(2.20668 0.00157656 0)
(3.00902 0.000319987 0)
(3.81994 0.0141614 0)
(4.6121 0.0375613 0)
(5.33255 0.0528592 0)
(5.9627 0.0498102 0)
(6.42026 0.0129706 0)
(6.77392 -0.029205 0)
(7.16512 -0.0310243 0)
(7.53283 -0.0133517 0)
(7.80122 -0.0105871 0)
(8.1328 0.019754 0)
(8.586 0.0946163 0)
(8.94031 0.151963 0)
(9.01082 0.132641 0)
(9.07852 0.137985 0)
(9.32531 0.21525 0)
(9.28298 0.149711 0)
(9.08396 0.0403889 0)
(9.07905 0.0573588 0)
(9.10577 0.0917882 0)
(9.11024 0.115927 0)
(0.488434 0.00151096 0)
(1.36439 0.00526554 0)
(2.20298 0.00535017 0)
(2.99734 0.00115149 0)
(3.7823 0.00585348 0)
(4.56057 0.0269763 0)
(5.28873 0.0512384 0)
(5.95151 0.063577 0)
(6.48087 0.0417993 0)
(6.85243 -0.0129383 0)
(7.2176 -0.0502976 0)
(7.61254 -0.0513017 0)
(7.92161 -0.0539189 0)
(8.19566 -0.0485935 0)
(8.60496 0.00911404 0)
(9.04365 0.0771805 0)
(9.2432 0.0760411 0)
(9.2321 0.0354208 0)
(9.39785 0.101237 0)
(9.5399 0.142539 0)
(9.31733 0.0118333 0)
(9.18457 -0.038807 0)
(9.21134 0.00431727 0)
(9.21709 0.0305789 0)
(9.21185 0.0567662 0)
(0.480649 0.00184454 0)
(1.35712 0.00419779 0)
(2.20682 0.00592844 0)
(3.00466 0.00192869 0)
(3.77266 0.000326374 0)
(4.53249 0.0111507 0)
(5.25368 0.035431 0)
(5.92501 0.0617561 0)
(6.51086 0.0648755 0)
(6.93134 0.0205981 0)
(7.28293 -0.0385825 0)
(7.67719 -0.0704845 0)
(8.04171 -0.0850812 0)
(8.30807 -0.104143 0)
(8.6388 -0.0764964 0)
(9.09537 -7.67627e-05 0)
(9.43655 0.0285123 0)
(9.47599 -0.0328125 0)
(9.49403 -0.0442546 0)
(9.70935 0.0588411 0)
(9.63224 0.0100645 0)
(9.36064 -0.120745 0)
(9.32356 -0.105437 0)
(9.34576 -0.0624892 0)
(9.33025 -0.0430762 0)
(9.31651 -0.011877 0)
(0.482589 0.00143523 0)
(1.36735 0.000570779 0)
(2.22336 0.000663409 0)
(3.03183 -0.00112769 0)
(3.79061 -0.00510169 0)
(4.5367 -0.00201628 0)
(5.24619 0.0113975 0)
(5.90782 0.0386596 0)
(6.52229 0.0653502 0)
(6.99959 0.0500581 0)
(7.35689 -0.00663543 0)
(7.73699 -0.0605851 0)
(8.13874 -0.0965355 0)
(8.45178 -0.134841 0)
(8.72008 -0.153294 0)
(9.12267 -0.0932407 0)
(9.55954 -0.0234659 0)
(9.73981 -0.0609701 0)
(9.68588 -0.151039 0)
(9.80424 -0.0974487 0)
(9.91976 -0.0271687 0)
(9.64207 -0.156949 0)
(9.45524 -0.223927 0)
(9.47617 -0.171694 0)
(9.4724 -0.142617 0)
(9.44041 -0.123668 0)
(9.41346 -0.0898344 0)
(0.495602 0.000782707 0)
(1.40311 -0.00473462 0)
(2.25623 -0.00930764 0)
(3.07278 -0.00938706 0)
(3.83115 -0.0131926 0)
(4.56724 -0.0137079 0)
(5.27257 -0.00940021 0)
(5.91769 0.0051871 0)
(6.5336 0.0371823 0)
(7.06106 0.0540677 0)
(7.43921 0.0213517 0)
(7.79972 -0.0325438 0)
(8.21261 -0.0826416 0)
(8.58743 -0.135661 0)
(8.85822 -0.195104 0)
(9.17037 -0.192315 0)
(9.61744 -0.106738 0)
(9.95427 -0.0787818 0)
(9.96372 -0.185738 0)
(9.92397 -0.24932 0)
(10.0957 -0.147657 0)
(9.98156 -0.173621 0)
(9.65503 -0.311752 0)
(9.596 -0.299986 0)
(9.61926 -0.246835 0)
(9.5838 -0.232039 0)
(9.54201 -0.206695 0)
(9.49767 -0.174989 0)
(0.51498 0.000367184 0)
(1.46234 -0.00883521 0)
(2.31087 -0.0213507 0)
(3.11522 -0.0219372 0)
(3.87876 -0.0217862 0)
(4.60924 -0.0249207 0)
(5.31995 -0.0244236 0)
(5.96004 -0.0230996 0)
(6.55794 -0.00438678 0)
(7.11897 0.0263695 0)
(7.53529 0.0246614 0)
(7.87436 -0.0114305 0)
(8.27493 -0.0553702 0)
(8.69334 -0.111994 0)
(9.0186 -0.191328 0)
(9.27819 -0.255651 0)
(9.64918 -0.218199 0)
(10.0805 -0.131784 0)
(10.253 -0.176531 0)
(10.1476 -0.322371 0)
(10.1953 -0.313995 0)
(10.2642 -0.237217 0)
(9.94988 -0.352032 0)
(9.73006 -0.424465 0)
(9.74859 -0.367097 0)
(9.73782 -0.333247 0)
(9.67768 -0.323445 0)
(9.62635 -0.291126 0)
(9.57687 -0.257048 0)
(0.533645 0.000530151 0)
(1.53208 -0.00987839 0)
(2.39097 -0.0304833 0)
(3.15757 -0.0385818 0)
(3.91083 -0.0311427 0)
(4.64134 -0.0303503 0)
(5.36166 -0.0328434 0)
(6.01913 -0.0387787 0)
(6.60148 -0.0392248 0)
(7.17091 -0.0165402 0)
(7.64072 -0.000641567 0)
(7.97324 -0.0158101 0)
(8.33792 -0.0402296 0)
(8.77242 -0.0789516 0)
(9.16099 -0.155059 0)
(9.43672 -0.258295 0)
(9.71612 -0.306599 0)
(10.1269 -0.23519 0)
(10.4676 -0.184984 0)
(10.4545 -0.312009 0)
(10.334 -0.437331 0)
(10.4277 -0.368072 0)
(10.2765 -0.383546 0)
(9.93332 -0.511615 0)
(9.86008 -0.501388 0)
(9.88072 -0.440888 0)
(9.82569 -0.427085 0)
(9.75202 -0.410891 0)
(9.69095 -0.37375 0)
(9.66313 -0.322583 0)
(0.549175 0.000639416 0)
(1.59767 -0.00840792 0)
(2.49042 -0.032465 0)
(3.21787 -0.0547854 0)
(3.92154 -0.0481491 0)
(4.64395 -0.032627 0)
(5.37037 -0.0300171 0)
(6.06208 -0.0383183 0)
(6.6542 -0.0543944 0)
(7.21425 -0.0523847 0)
(7.73603 -0.0371421 0)
(8.09916 -0.043776 0)
(8.41638 -0.0549808 0)
(8.83347 -0.0633384 0)
(9.26963 -0.109691 0)
(9.60181 -0.213178 0)
(9.84579 -0.326022 0)
(10.1579 -0.341338 0)
(10.5628 -0.253965 0)
(10.7442 -0.276989 0)
(10.5815 -0.461549 0)
(10.5285 -0.51207 0)
(10.5322 -0.455549 0)
(10.2156 -0.55666 0)
(9.99293 -0.625751 0)
(10.0006 -0.567194 0)
(9.97584 -0.527222 0)
(9.88553 -0.521054 0)
(9.80446 -0.493095 0)
(9.74759 -0.446215 0)
(9.76246 -0.367065 0)
(0.565448 0.000628678 0)
(1.65554 -0.00752691 0)
(2.59386 -0.0287767 0)
(3.3131 -0.0621842 0)
(3.94134 -0.0723763 0)
(4.61794 -0.0469735 0)
(5.3356 -0.0233236 0)
(6.05696 -0.0212995 0)
(6.68943 -0.0434269 0)
(7.24555 -0.0649522 0)
(7.79727 -0.063484 0)
(8.23068 -0.0723617 0)
(8.52539 -0.0928708 0)
(8.88811 -0.0840625 0)
(9.34195 -0.0838444 0)
(9.7401 -0.152164 0)
(10.0075 -0.280729 0)
(10.2394 -0.383546 0)
(10.5768 -0.358077 0)
(10.9132 -0.288294 0)
(10.8916 -0.406919 0)
(10.6772 -0.588232 0)
(10.6808 -0.568348 0)
(10.5091 -0.593229 0)
(10.1918 -0.710436 0)
(10.1102 -0.705094 0)
(10.1142 -0.64136 0)
(10.0318 -0.623687 0)
(9.9232 -0.610141 0)
(9.84204 -0.569164 0)
(9.81695 -0.5007 0)
(9.87597 -0.399265 0)
(0.587956 0.000189296 0)
(1.71474 -0.00922421 0)
(2.6912 -0.0266303 0)
(3.43714 -0.0599681 0)
(4.01004 -0.0916891 0)
(4.59989 -0.079767 0)
(5.27525 -0.0353432 0)
(5.99761 -0.00321096 0)
(6.67894 -0.00964045 0)
(7.25498 -0.045631 0)
(7.81458 -0.0663596 0)
(8.32573 -0.0803821 0)
(8.65924 -0.11976 0)
(8.95584 -0.133293 0)
(9.38254 -0.100612 0)
(9.83368 -0.108048 0)
(10.1608 -0.20657 0)
(10.3715 -0.347455 0)
(10.6024 -0.42162 0)
(10.942 -0.361554 0)
(11.1363 -0.352564 0)
(10.9277 -0.555742 0)
(10.7783 -0.668706 0)
(10.7365 -0.650769 0)
(10.4491 -0.753217 0)
(10.2446 -0.823798 0)
(10.2328 -0.774039 0)
(10.183 -0.730904 0)
(10.0571 -0.722882 0)
(9.94691 -0.692979 0)
(9.88621 -0.634388 0)
(9.9155 -0.53745 0)
(10.0019 -0.434168 0)
(0.618711 -0.000324614 0)
(1.78657 -0.0126654 0)
(2.78704 -0.0304239 0)
(3.57032 -0.0569941 0)
(4.13646 -0.0983025 0)
(4.6382 -0.116701 0)
(5.22969 -0.0784023 0)
(5.91353 -0.014431 0)
(6.61778 0.0220042 0)
(7.23174 0.00139572 0)
(7.79084 -0.0386828 0)
(8.35439 -0.0625709 0)
(8.77848 -0.109303 0)
(9.0525 -0.16705 0)
(9.4063 -0.154902 0)
(9.87445 -0.108407 0)
(10.2767 -0.140539 0)
(10.5178 -0.267933 0)
(10.6864 -0.403318 0)
(10.921 -0.434808 0)
(11.2203 -0.364806 0)
(11.2087 -0.457172 0)
(10.9271 -0.68515 0)
(10.8717 -0.723929 0)
(10.7093 -0.776762 0)
(10.4319 -0.896902 0)
(10.3403 -0.905358 0)
(10.3196 -0.84928 0)
(10.206 -0.831685 0)
(10.0642 -0.816566 0)
(9.9716 -0.767044 0)
(9.96038 -0.682634 0)
(10.0428 -0.565116 0)
(10.1396 -0.478131 0)
(0.655686 -0.000679231 0)
(1.87464 -0.0161893 0)
(2.89304 -0.0382182 0)
(3.69987 -0.060768 0)
(4.29554 -0.0967754 0)
(4.75378 -0.139008 0)
(5.2428 -0.136111 0)
(5.84797 -0.0697931 0)
(6.53124 0.0125144 0)
(7.17906 0.0447433 0)
(7.74005 0.0149399 0)
(8.31439 -0.0205008 0)
(8.83587 -0.0634498 0)
(9.16228 -0.146648 0)
(9.44271 -0.198854 0)
(9.86686 -0.156123 0)
(10.3317 -0.114335 0)
(10.647 -0.183405 0)
(10.8079 -0.328455 0)
(10.9488 -0.441172 0)
(11.1868 -0.425406 0)
(11.3777 -0.391177 0)
(11.1687 -0.591707 0)
(10.966 -0.767969 0)
(10.9132 -0.800135 0)
(10.662 -0.923019 0)
(10.4674 -1.00605 0)
(10.4271 -0.972746 0)
(10.3518 -0.936148 0)
(10.195 -0.932747 0)
(10.0685 -0.898146 0)
(10.0191 -0.825917 0)
(10.0724 -0.712646 0)
(10.1847 -0.593033 0)
(10.2992 -0.520081 0)
(0.695914 -0.00107622 0)
(1.97302 -0.0181636 0)
(3.01345 -0.0455585 0)
(3.8259 -0.0705173 0)
(4.45242 -0.098035 0)
(4.92305 -0.142793 0)
(5.33974 -0.178786 0)
(5.84017 -0.149521 0)
(6.45634 -0.0547181 0)
(7.10879 0.038888 0)
(7.6856 0.0629409 0)
(8.23581 0.0364638 0)
(8.81021 0.00181593 0)
(9.23893 -0.0760154 0)
(9.50694 -0.180029 0)
(9.84242 -0.206011 0)
(10.3131 -0.14123 0)
(10.7254 -0.125516 0)
(10.9366 -0.234911 0)
(11.0369 -0.382061 0)
(11.1656 -0.457469 0)
(11.3883 -0.408632 0)
(11.4063 -0.463896 0)
(11.12 -0.719137 0)
(11.0365 -0.824087 0)
(10.893 -0.915751 0)
(10.637 -1.05567 0)
(10.5216 -1.08385 0)
(10.4704 -1.04019 0)
(10.332 -1.03147 0)
(10.1715 -1.02184 0)
(10.0907 -0.962764 0)
(10.1059 -0.864475 0)
(10.2102 -0.731519 0)
(10.3365 -0.622694 0)
(10.5073 -0.541118 0)
(0.736447 -0.00152461 0)
(2.07261 -0.0187011 0)
(3.141 -0.048696 0)
(3.94977 -0.0792158 0)
(4.58662 -0.104066 0)
(5.09429 -0.13934 0)
(5.50253 -0.191536 0)
(5.91398 -0.214628 0)
(6.43065 -0.155898 0)
(7.04111 -0.0366286 0)
(7.63256 0.0593835 0)
(8.16531 0.0817025 0)
(8.72753 0.0660148 0)
(9.24702 0.0156707 0)
(9.572 -0.0977496 0)
(9.84192 -0.19693 0)
(10.2432 -0.187789 0)
(10.7169 -0.118228 0)
(11.0378 -0.147847 0)
(11.1539 -0.290919 0)
(11.2179 -0.425164 0)
(11.3485 -0.45484 0)
(11.5137 -0.412635 0)
(11.3569 -0.582113 0)
(11.135 -0.809479 0)
(11.0725 -0.896375 0)
(10.8402 -1.04919 0)
(10.6354 -1.15682 0)
(10.5594 -1.14408 0)
(10.4593 -1.11718 0)
(10.2836 -1.12509 0)
(10.1651 -1.09139 0)
(10.1516 -1.00811 0)
(10.2297 -0.885997 0)
(10.3616 -0.748907 0)
(10.5192 -0.646739 0)
(10.7912 -0.524269 0)
(0.774399 -0.00166264 0)
(2.165 -0.0180649 0)
(3.2639 -0.0471989 0)
(4.0666 -0.0812815 0)
(4.69198 -0.10849 0)
(5.22482 -0.13522 0)
(5.67284 -0.181732 0)
(6.05556 -0.238748 0)
(6.47759 -0.243661 0)
(7.00726 -0.155377 0)
(7.58217 -0.0206889 0)
(8.11453 0.0752816 0)
(8.64319 0.10616 0)
(9.19355 0.0949467 0)
(9.60691 0.0136813 0)
(9.86528 -0.117073 0)
(10.1794 -0.1893 0)
(10.6254 -0.148646 0)
(11.0562 -0.0973143 0)
(11.2673 -0.183391 0)
(11.3158 -0.346135 0)
(11.3663 -0.455318 0)
(11.5073 -0.444569 0)
(11.5644 -0.465688 0)
(11.3083 -0.712918 0)
(11.1825 -0.873366 0)
(11.0405 -1.0003 0)
(10.7845 -1.16972 0)
(10.6409 -1.22778 0)
(10.5612 -1.20278 0)
(10.4061 -1.2051 0)
(10.2461 -1.20511 0)
(10.2018 -1.1407 0)
(10.2559 -1.03642 0)
(10.3783 -0.899795 0)
(10.5373 -0.767941 0)
(10.7661 -0.649507 0)
(11.1321 -0.469293 0)
(0.807852 -0.00162583 0)
(2.24391 -0.0160908 0)
(3.37234 -0.0422068 0)
(4.17059 -0.0764564 0)
(4.76851 -0.105826 0)
(5.29783 -0.128246 0)
(5.7905 -0.160878 0)
(6.20893 -0.222191 0)
(6.58685 -0.279826 0)
(7.02875 -0.262992 0)
(7.55279 -0.151537 0)
(8.07429 -0.00903977 0)
(8.5819 0.093109 0)
(9.11803 0.135072 0)
(9.60209 0.111087 0)
(9.89944 -0.000766619 0)
(10.1477 -0.121914 0)
(10.513 -0.156562 0)
(10.9688 -0.0967956 0)
(11.3186 -0.0873695 0)
(11.4252 -0.229039 0)
(11.4372 -0.394714 0)
(11.4992 -0.470137 0)
(11.6468 -0.445792 0)
(11.5516 -0.574489 0)
(11.2933 -0.819851 0)
(11.189 -0.941846 0)
(10.9586 -1.11814 0)
(10.7391 -1.26028 0)
(10.6376 -1.28016 0)
(10.5226 -1.27283 0)
(10.3474 -1.29457 0)
(10.2566 -1.26477 0)
(10.2873 -1.17368 0)
(10.3929 -1.05304 0)
(10.5527 -0.912276 0)
(10.7632 -0.779355 0)
(11.072 -0.620721 0)
(11.4771 -0.396207 0)
(0.836945 -0.00161604 0)
(2.3065 -0.0135963 0)
(3.45906 -0.0346638 0)
(4.26041 -0.0665127 0)
(4.82412 -0.0973583 0)
(5.3196 -0.116782 0)
(5.82665 -0.135188 0)
(6.30666 -0.179841 0)
(6.70854 -0.256712 0)
(7.09881 -0.310351 0)
(7.55912 -0.272866 0)
(8.05022 -0.148259 0)
(8.53473 0.00324501 0)
(9.04979 0.117786 0)
(9.56337 0.160156 0)
(9.93468 0.107376 0)
(10.1517 -0.0175726 0)
(10.4302 -0.106069 0)
(10.8292 -0.103408 0)
(11.2583 -0.0433607 0)
(11.5026 -0.0939479 0)
(11.5258 -0.27804 0)
(11.5309 -0.429919 0)
(11.6415 -0.466592 0)
(11.7374 -0.484651 0)
(11.4882 -0.71107 0)
(11.2832 -0.894304 0)
(11.1223 -1.0293 0)
(10.8615 -1.22269 0)
(10.7034 -1.31935 0)
(10.612 -1.32956 0)
(10.4626 -1.35601 0)
(10.3288 -1.37078 0)
(10.3236 -1.30509 0)
(10.4091 -1.19483 0)
(10.5603 -1.06153 0)
(10.769 -0.920965 0)
(11.0404 -0.770552 0)
(11.3975 -0.568014 0)
(11.8072 -0.324297 0)
(0.863788 -0.00182433 0)
(2.35397 -0.0116763 0)
(3.52059 -0.0264612 0)
(4.33419 -0.0526413 0)
(4.8743 -0.0851695 0)
(5.31656 -0.105384 0)
(5.7928 -0.111201 0)
(6.31082 -0.129011 0)
(6.77817 -0.191658 0)
(7.17671 -0.281442 0)
(7.59362 -0.3273 0)
(8.05039 -0.277349 0)
(8.49989 -0.143892 0)
(8.98568 0.0239619 0)
(9.50678 0.146909 0)
(9.94686 0.171521 0)
(10.1964 0.0872966 0)
(10.3903 -0.0235886 0)
(10.709 -0.0690993 0)
(11.1161 -0.0371789 0)
(11.4849 0.000596539 0)
(11.6129 -0.11783 0)
(11.5833 -0.321757 0)
(11.6244 -0.441226 0)
(11.788 -0.453404 0)
(11.7181 -0.578362 0)
(11.3989 -0.828086 0)
(11.2352 -0.95336 0)
(11.0003 -1.12641 0)
(10.7737 -1.296 0)
(10.6687 -1.35672 0)
(10.5638 -1.38888 0)
(10.4208 -1.43896 0)
(10.3691 -1.4239 0)
(10.4288 -1.33037 0)
(10.5621 -1.20336 0)
(10.7688 -1.06197 0)
(11.027 -0.918356 0)
(11.3406 -0.739849 0)
(11.7268 -0.504762 0)
(12.1211 -0.265303 0)
(0.8897 -0.00206738 0)
(2.39026 -0.0106821 0)
(3.55845 -0.0198985 0)
(4.38668 -0.0375229 0)
(4.92872 -0.0683319 0)
(5.32415 -0.0961038 0)
(5.73461 -0.0992072 0)
(6.23429 -0.0897893 0)
(6.7579 -0.113315 0)
(7.21007 -0.19551 0)
(7.62329 -0.29241 0)
(8.06315 -0.33212 0)
(8.48684 -0.279139 0)
(8.92086 -0.130551 0)
(9.43193 0.0567064 0)
(9.92345 0.172736 0)
(10.25 0.16329 0)
(10.41 0.0631388 0)
(10.6291 -0.00930414 0)
(10.9746 -0.0154973 0)
(11.3658 0.0326042 0)
(11.6434 0.0252307 0)
(11.6596 -0.155375 0)
(11.6247 -0.349613 0)
(11.7482 -0.418385 0)
(11.8546 -0.467045 0)
(11.5799 -0.70442 0)
(11.3076 -0.89832 0)
(11.1273 -1.01943 0)
(10.8633 -1.21236 0)
(10.7057 -1.33659 0)
(10.6283 -1.38945 0)
(10.5148 -1.4574 0)
(10.4259 -1.50274 0)
(10.4491 -1.45278 0)
(10.5605 -1.33852 0)
(10.7581 -1.19627 0)
(11.0159 -1.0538 0)
(11.3043 -0.901176 0)
(11.6561 -0.692141 0)
(12.0563 -0.443225 0)
(12.4098 -0.226966 0)
(0.91321 -0.00212521 0)
(2.4183 -0.00974529 0)
(3.57784 -0.0157927 0)
(4.41497 -0.0250186 0)
(4.98039 -0.0481632 0)
(5.36427 -0.0829706 0)
(5.70659 -0.10005 0)
(6.13508 -0.0801539 0)
(6.66047 -0.057443 0)
(7.17123 -0.0923211 0)
(7.61433 -0.190254 0)
(8.05591 -0.288553 0)
(8.48741 -0.33075 0)
(8.873 -0.274802 0)
(9.33256 -0.0996521 0)
(9.85626 0.0981197 0)
(10.2711 0.186486 0)
(10.4756 0.138894 0)
(10.6037 0.0497483 0)
(10.8679 0.0254509 0)
(11.22 0.0483919 0)
(11.5716 0.0952212 0)
(11.7305 0.0223457 0)
(11.6693 -0.197582 0)
(11.6925 -0.34672 0)
(11.8602 -0.380158 0)
(11.7561 -0.538036 0)
(11.402 -0.806716 0)
(11.2087 -0.939797 0)
(10.976 -1.09854 0)
(10.7496 -1.27174 0)
(10.6581 -1.35776 0)
(10.5864 -1.43044 0)
(10.4903 -1.51978 0)
(10.468 -1.53649 0)
(10.5516 -1.45643 0)
(10.7352 -1.32318 0)
(10.9975 -1.17642 0)
(11.2787 -1.03867 0)
(11.5985 -0.868191 0)
(11.9882 -0.634435 0)
(12.3662 -0.396929 0)
(12.6844 -0.203297 0)
(0.930595 -0.00195563 0)
(2.43681 -0.00759603 0)
(3.58359 -0.0123822 0)
(4.42203 -0.0166169 0)
(5.01478 -0.0297854 0)
(5.42811 -0.0620648 0)
(5.73996 -0.0992491 0)
(6.08127 -0.0984367 0)
(6.54296 -0.0518748 0)
(7.0725 -0.0211219 0)
(7.55943 -0.0689983 0)
(8.00852 -0.174785 0)
(8.46664 -0.274725 0)
(8.85296 -0.327378 0)
(9.23314 -0.25503 0)
(9.73663 -0.0489145 0)
(10.2323 0.138614 0)
(10.5361 0.182417 0)
(10.6467 0.109091 0)
(10.7985 0.0577033 0)
(11.0993 0.0754255 0)
(11.4406 0.116418 0)
(11.7222 0.137422 0)
(11.7581 -0.00813962 0)
(11.682 -0.229209 0)
(11.7921 -0.306546 0)
(11.846 -0.378449 0)
(11.5375 -0.640191 0)
(11.259 -0.858392 0)
(11.0811 -0.990228 0)
(10.8274 -1.17646 0)
(10.679 -1.30458 0)
(10.6256 -1.37757 0)
(10.5512 -1.47784 0)
(10.4915 -1.55933 0)
(10.5337 -1.53821 0)
(10.6976 -1.4315 0)
(10.9637 -1.28876 0)
(11.2556 -1.15351 0)
(11.5546 -1.01527 0)
(11.9203 -0.819365 0)
(12.3144 -0.581337 0)
(12.6499 -0.368847 0)
(12.9673 -0.176462 0)
(0.938222 -0.00149676 0)
(2.44033 -0.00387089 0)
(3.57688 -0.00698706 0)
(4.41168 -0.00961358 0)
(5.02543 -0.0159164 0)
(5.48533 -0.0380974 0)
(5.82303 -0.0831371 0)
(6.1104 -0.118102 0)
(6.4748 -0.0924171 0)
(6.95901 -0.0199956 0)
(7.47168 0.0130599 0)
(7.93733 -0.0448441 0)
(8.4017 -0.150278 0)
(8.8352 -0.259838 0)
(9.17097 -0.319013 0)
(9.59008 -0.211628 0)
(10.1177 0.0138106 0)
(10.5395 0.167118 0)
(10.725 0.160853 0)
(10.7953 0.0872294 0)
(11.0003 0.0884939 0)
(11.3152 0.134741 0)
(11.6268 0.179877 0)
(11.8117 0.149508 0)
(11.7504 -0.0562022 0)
(11.7239 -0.22802 0)
(11.8404 -0.260702 0)
(11.6686 -0.439013 0)
(11.3289 -0.71951 0)
(11.1466 -0.888912 0)
(10.933 -1.06282 0)
(10.7223 -1.23557 0)
(10.6457 -1.32269 0)
(10.5975 -1.40622 0)
(10.5257 -1.51915 0)
(10.5185 -1.56945 0)
(10.6506 -1.50996 0)
(10.9126 -1.3855 0)
(11.2237 -1.25239 0)
(11.5236 -1.13211 0)
(11.8602 -0.978369 0)
(12.2522 -0.764492 0)
(12.6124 -0.544198 0)
(12.9244 -0.344506 0)
(13.2553 -0.138763 0)
(0.934342 -0.000913293 0)
(2.42268 0.00112472 0)
(3.55382 0.00172318 0)
(4.38462 -0.000275041 0)
(5.01279 -0.0038397 0)
(5.51182 -0.0166568 0)
(5.91114 -0.0536047 0)
(6.20804 -0.112333 0)
(6.49729 -0.138187 0)
(6.88887 -0.0832851 0)
(7.37632 0.0104333 0)
(7.86308 0.0417486 0)
(8.31923 -0.0192545 0)
(8.7823 -0.123249 0)
(9.14958 -0.250799 0)
(9.47151 -0.296809 0)
(9.94843 -0.145701 0)
(10.4559 0.0754697 0)
(10.7729 0.175768 0)
(10.8624 0.128376 0)
(10.9474 0.084321 0)
(11.2028 0.137437 0)
(11.506 0.198163 0)
(11.7678 0.229686 0)
(11.842 0.130654 0)
(11.7271 -0.0998067 0)
(11.7707 -0.186924 0)
(11.7497 -0.263111 0)
(11.4359 -0.526127 0)
(11.1921 -0.762374 0)
(11.0267 -0.936589 0)
(10.799 -1.13879 0)
(10.6676 -1.26936 0)
(10.6273 -1.33942 0)
(10.5675 -1.44211 0)
(10.522 -1.54511 0)
(10.6081 -1.55208 0)
(10.854 -1.46237 0)
(11.1786 -1.33846 0)
(11.4959 -1.2255 0)
(11.8155 -1.10527 0)
(12.1867 -0.929504 0)
(12.5644 -0.718019 0)
(12.8868 -0.517063 0)
(13.1974 -0.311614 0)
(13.5302 -0.0951115 0)
(0.918412 -0.000355792 0)
(2.38024 0.00650636 0)
(3.50749 0.01334 0)
(4.33936 0.0134869 0)
(4.97655 0.0109491 0)
(5.50223 0.00279578 0)
(5.96059 -0.0207488 0)
(6.32011 -0.0778607 0)
(6.59668 -0.146477 0)
(6.90191 -0.156689 0)
(7.31212 -0.0725134 0)
(7.79099 0.0367302 0)
(8.25362 0.0651901 0)
(8.70529 0.00722273 0)
(9.12607 -0.103844 0)
(9.42231 -0.245319 0)
(9.7813 -0.252454 0)
(10.2967 -0.0671234 0)
(10.74 0.12297 0)
(10.9425 0.161537 0)
(10.9783 0.0957921 0)
(11.113 0.104759 0)
(11.3911 0.197194 0)
(11.6623 0.260505 0)
(11.8568 0.259921 0)
(11.8086 0.0860734 0)
(11.7068 -0.107367 0)
(11.7526 -0.144833 0)
(11.5535 -0.324263 0)
(11.2606 -0.595186 0)
(11.0907 -0.797627 0)
(10.8913 -1.00543 0)
(10.7049 -1.19271 0)
(10.643 -1.28392 0)
(10.607 -1.36326 0)
(10.5509 -1.48 0)
(10.5872 -1.55162 0)
(10.8006 -1.51605 0)
(11.1269 -1.41359 0)
(11.4629 -1.30382 0)
(11.782 -1.2019 0)
(12.1281 -1.0665 0)
(12.5055 -0.878947 0)
(12.8477 -0.683251 0)
(13.1485 -0.488636 0)
(13.4613 -0.269928 0)
(13.7844 -0.0507855 0)
(0.890544 0.000319018 0)
(2.31256 0.011804 0)
(3.43202 0.0261061 0)
(4.2725 0.0318602 0)
(4.91727 0.0304611 0)
(5.45938 0.0247506 0)
(5.95567 0.0105721 0)
(6.39038 -0.0295806 0)
(6.71557 -0.108066 0)
(6.98949 -0.180517 0)
(7.31373 -0.171448 0)
(7.7351 -0.0606069 0)
(8.20083 0.0581716 0)
(8.6459 0.0856651 0)
(9.07677 0.0298741 0)
(9.41935 -0.0980158 0)
(9.68364 -0.232556 0)
(10.1075 -0.186056 0)
(10.6193 0.00957647 0)
(10.968 0.14642 0)
(11.0679 0.127439 0)
(11.0975 0.0741245 0)
(11.2853 0.145599 0)
(11.5517 0.259404 0)
(11.7829 0.318134 0)
(11.875 0.26055 0)
(11.7272 0.0366825 0)
(11.6919 -0.0730926 0)
(11.6372 -0.153359 0)
(11.3614 -0.404575 0)
(11.1482 -0.642814 0)
(10.9753 -0.849544 0)
(10.7649 -1.07144 0)
(10.652 -1.21665 0)
(10.6297 -1.29364 0)
(10.5941 -1.3989 0)
(10.5974 -1.51092 0)
(10.7635 -1.53814 0)
(11.0757 -1.47375 0)
(11.4236 -1.374 0)
(11.7511 -1.27671 0)
(12.0786 -1.17071 0)
(12.4406 -1.01789 0)
(12.7996 -0.834319 0)
(13.1077 -0.653724 0)
(13.3975 -0.453646 0)
(13.7106 -0.222241 0)
(14.017 -0.0078085 0)
(0.851372 0.0010744 0)
(2.22178 0.0169496 0)
(3.32562 0.0384393 0)
(4.17995 0.0525971 0)
(4.83784 0.0546796 0)
(5.38982 0.0505639 0)
(5.90362 0.0419604 0)
(6.39307 0.0192708 0)
(6.79402 -0.042557 0)
(7.09754 -0.138985 0)
(7.38061 -0.210174 0)
(7.72179 -0.180663 0)
(8.15174 -0.0466117 0)
(8.60487 0.0768473 0)
(9.03107 0.103801 0)
(9.40883 0.0419586 0)
(9.67261 -0.102051 0)
(9.96068 -0.201999 0)
(10.4391 -0.105919 0)
(10.9054 0.0712343 0)
(11.1448 0.140822 0)
(11.1724 0.081558 0)
(11.2317 0.0705433 0)
(11.4508 0.196293 0)
(11.6869 0.319054 0)
(11.8571 0.359248 0)
(11.811 0.223849 0)
(11.6557 0.0153055 0)
(11.6518 -0.042596 0)
(11.4733 -0.215239 0)
(11.2236 -0.473261 0)
(11.0456 -0.689812 0)
(10.8434 -0.915014 0)
(10.6751 -1.11514 0)
(10.6341 -1.22257 0)
(10.6301 -1.31482 0)
(10.6314 -1.44002 0)
(10.7503 -1.5225 0)
(11.0295 -1.50857 0)
(11.3775 -1.43246 0)
(11.7154 -1.33992 0)
(12.0352 -1.24667 0)
(12.3743 -1.12718 0)
(12.7367 -0.965637 0)
(13.0647 -0.795595 0)
(13.3448 -0.622861 0)
(13.6337 -0.409957 0)
(13.9416 -0.171765 0)
(14.2286 0.0350338 0)
(0.802182 0.00169588 0)
(2.11133 0.0215943 0)
(3.19169 0.049442 0)
(4.0594 0.0726432 0)
(4.74118 0.0813466 0)
(5.30458 0.0791973 0)
(5.82186 0.0734119 0)
(6.33591 0.0633065 0)
(6.80273 0.0270368 0)
(7.16882 -0.0565979 0)
(7.46688 -0.165764 0)
(7.76218 -0.233255 0)
(8.12044 -0.181696 0)
(8.55805 -0.0289977 0)
(8.99931 0.0950288 0)
(9.38927 0.116008 0)
(9.69119 0.0395258 0)
(9.91354 -0.10408 0)
(10.2627 -0.149751 0)
(10.7598 -0.0241785 0)
(11.1484 0.10887 0)
(11.2813 0.106545 0)
(11.277 0.0347372 0)
(11.3828 0.0829482 0)
(11.6075 0.245779 0)
(11.7972 0.366871 0)
(11.8659 0.362052 0)
(11.7151 0.165178 0)
(11.6284 0.0223138 0)
(11.5639 -0.0653704 0)
(11.3239 -0.297525 0)
(11.1153 -0.531663 0)
(10.9252 -0.75011 0)
(10.7286 -0.977439 0)
(10.6396 -1.13604 0)
(10.6495 -1.23142 0)
(10.6712 -1.35016 0)
(10.7599 -1.46817 0)
(10.9942 -1.50901 0)
(11.3271 -1.46911 0)
(11.6698 -1.39208 0)
(11.9911 -1.3048 0)
(12.3101 -1.20617 0)
(12.6586 -1.07164 0)
(13.0051 -0.913283 0)
(13.2965 -0.759536 0)
(13.563 -0.58458 0)
(13.8571 -0.357733 0)
(14.1502 -0.121452 0)
(14.4244 0.0813696 0)
(0.744965 0.00219863 0)
(1.98527 0.0254281 0)
(3.03712 0.058432 0)
(3.91304 0.0897344 0)
(4.62878 0.107314 0)
(5.21439 0.108477 0)
(5.73303 0.103427 0)
(6.24523 0.099947 0)
(6.74848 0.0863332 0)
(7.17669 0.0334559 0)
(7.52057 -0.0678998 0)
(7.82376 -0.18623 0)
(8.12893 -0.247923 0)
(8.5064 -0.172685 0)
(8.9531 -0.00597019 0)
(9.37371 0.111083 0)
(9.70325 0.117164 0)
(9.93631 0.0264428 0)
(10.1697 -0.092632 0)
(10.5805 -0.0805043 0)
(11.0549 0.0481448 0)
(11.345 0.116205 0)
(11.3932 0.0512246 0)
(11.3988 -0.00413661 0)
(11.5521 0.103782 0)
(11.7536 0.282362 0)
(11.8726 0.384576 0)
(11.8296 0.314875 0)
(11.6619 0.108403 0)
(11.6127 0.0139581 0)
(11.4466 -0.142194 0)
(11.2039 -0.379734 0)
(11.0054 -0.595882 0)
(10.8054 -0.821427 0)
(10.6678 -1.02402 0)
(10.6611 -1.14731 0)
(10.7056 -1.25563 0)
(10.7846 -1.3838 0)
(10.9738 -1.47106 0)
(11.2777 -1.4753 0)
(11.6158 -1.42488 0)
(11.9394 -1.35005 0)
(12.2475 -1.26274 0)
(12.5723 -1.15076 0)
(12.9208 -1.00726 0)
(13.2359 -0.862535 0)
(13.4985 -0.72047 0)
(13.7694 -0.534934 0)
(14.0618 -0.301154 0)
(14.3377 -0.0705684 0)
(14.6074 0.133444 0)
(0.681372 0.00258127 0)
(1.84764 0.0284819 0)
(2.86988 0.065354 0)
(3.74815 0.102492 0)
(4.50089 0.129733 0)
(5.12559 0.136534 0)
(5.65585 0.130844 0)