/*--------------------------------*- C++ -*----------------------------------*\
| =========                 |                                                 |
| \\      /  F ield         | OpenFOAM: The Open Source CFD Toolbox           |
|  \\    /   O peration     | Version:  2412                                  |
|   \\  /    A nd           | Website:  www.openfoam.com                      |
|    \\/     M anipulation  |                                                 |
\*---------------------------------------------------------------------------*/
FoamFile
{
    version     2.0;
    format      ascii;
    arch        "LSB;label=32;scalar=64";
    class       surfaceScalarField;
    location    "0.05";
    object      phi;
}
// * * * * * * * * * * * * * * * * * * * * * * * * * * * * * * * * * * * * * //

dimensions      [1 0 -1 0 0 0 0];

oriented        oriented;

internalField   nonuniform List<scalar> 
23538
(
3.958464269e-12
-1.796794234e-10
1.730181527e-10
-3.445808256e-10
4.030923523e-10
-4.051954705e-10
6.471792548e-10
-4.185312112e-10
8.842436393e-10
-4.105817665e-10
1.102948136e-09
-3.910045135e-10
1.295016166e-09
-3.628034105e-10
1.453189131e-09
-3.269382519e-10
1.571038926e-09
-2.841835021e-10
1.643083084e-09
-2.354281673e-10
1.664742414e-09
-1.815217995e-10
1.63216589e-09
-1.231375692e-10
1.542074891e-09
-6.081076239e-11
1.391717824e-09
4.963552238e-12
1.178970694e-09
7.356793417e-11
9.026102878e-10
1.440906361e-10
5.624790142e-10
2.154379934e-10
1.598618832e-10
2.86113289e-10
-3.022514575e-10
3.543361022e-10
-8.190390162e-10
4.181811168e-10
-1.383764264e-09
4.756245045e-10
-1.987905219e-09
5.247576719e-10
-2.621399886e-09
5.639140321e-10
-3.27294754e-09
5.917270691e-10
-3.930466243e-09
6.072858351e-10
-4.581620711e-09
6.102181504e-10
-5.214377268e-09
6.007125594e-10
-5.817519199e-09
5.794782131e-10
-6.381057523e-09
5.47646145e-10
-6.896514585e-09
5.06626307e-10
-7.35704219e-09
4.579610521e-10
-7.757439563e-09
4.032022559e-10
-8.093877016e-09
3.437328402e-10
-8.364037485e-09
2.807459134e-10
-8.566333712e-09
2.151248071e-10
-8.699957458e-09
1.475170697e-10
-8.764656283e-09
7.839691138e-11
-8.760604058e-09
8.125986473e-12
-8.688348487e-09
-6.295670975e-11
-8.548899645e-09
-1.344077201e-10
-8.343991533e-09
-2.05484181e-10
-8.07638631e-09
-2.750897382e-10
-7.750252881e-09
-3.417302418e-10
-7.371412043e-09
-4.036338787e-10
-6.94724089e-09
-4.59070342e-10
-6.486397989e-09
-5.065645872e-10
-5.998401156e-09
-5.450305601e-10
-5.493170327e-09
-5.738420688e-10
-4.980546742e-09
-5.928398015e-10
-4.46989175e-09
-6.022826457e-10
-3.969781386e-09
-6.027463255e-10
-3.487798473e-09
-5.950425679e-10
-3.03041433e-09
-5.80137474e-10
-2.602933467e-09
-5.590818782e-10
-2.209515834e-09
-5.329370166e-10
-1.853263154e-09
-5.0272463e-10
-1.53631396e-09
-4.69396599e-10
-1.259970304e-09
-4.338058939e-10
-1.024829469e-09
-3.967059535e-10
-8.309246794e-10
-3.587174329e-10
-6.77880446e-10
-3.203293234e-10
-5.650258701e-10
-2.819122593e-10
-4.915107312e-10
-2.437291136e-10
-4.563680367e-10
-2.059852467e-10
-4.585532556e-10
-1.688332765e-10
-4.970399663e-10
-1.323316555e-10
-5.708310043e-10
-9.651547808e-11
-6.789731119e-10
-6.140473107e-11
-8.205476674e-10
-2.70196423e-11
-9.946598202e-10
6.621925207e-12
-1.200385431e-09
3.945480414e-11
-1.436690704e-09
7.134708342e-11
-1.702377736e-09
1.021321637e-10
-1.996020585e-09
1.315988293e-10
-2.315939092e-09
1.5952865e-10
-2.660177526e-09
1.85705407e-10
-3.026403062e-09
2.098285644e-10
-3.411640424e-09
2.313394713e-10
-3.811944563e-09
2.493626512e-10
-4.222212272e-09
2.628154054e-10
-4.636094099e-09
2.705136798e-10
-5.046008555e-09
2.712425108e-10
-5.443250191e-09
2.638608881e-10
-5.818169103e-09
2.473514397e-10
-6.160385855e-09
2.208650831e-10
-6.45904397e-09
1.83762273e-10
-6.703114853e-09
1.356723425e-10
-6.881757526e-09
7.656738464e-11
-6.984754121e-09
6.848421134e-12
-7.003023541e-09
-7.256446398e-11
-6.929203067e-09
-1.601431066e-10
-6.758267064e-09
-2.536992669e-10
-6.488704275e-09
-3.499122225e-10
-6.123052235e-09
-4.446924288e-10
-5.667698016e-09
-5.342683783e-10
-5.132261529e-09
-6.154034012e-10
-4.528992476e-09
-6.854141529e-10
-3.871997529e-09
-7.423550509e-10
-3.176521456e-09
-7.849821295e-10
-2.45824134e-09
-8.127214241e-10
-1.732614024e-09
-8.256417425e-10
-1.014283816e-09
-8.243965219e-10
-3.16570666e-10
-8.101414365e-10
3.489215556e-10
-7.844317915e-10
9.725660719e-10
-7.490918452e-10
1.546839187e-09
-7.06082839e-10
2.066316089e-09
-6.573816748e-10
2.527563409e-09
-6.048822362e-10
2.929073781e-09
-5.504281854e-10
3.271004732e-09
-4.956352687e-10
3.554458214e-09
-4.414160389e-10
3.781273088e-09
-3.885013949e-10
3.954086651e-09
-3.377013513e-10
4.07613255e-09
-2.896368479e-10
4.151049703e-09
-2.447550409e-10
4.182730626e-09
-2.033527745e-10
4.175182378e-09
-1.655988068e-10
4.132419015e-09
-1.315494221e-10
4.058363487e-09
-1.011625491e-10
3.956772284e-09
-7.431947189e-11
3.831191484e-09
-5.085161477e-11
3.684903916e-09
-3.053193842e-11
3.520886756e-09
-1.308157131e-11
3.341796819e-09
1.787144241e-12
3.149978808e-09
1.437397295e-11
2.947461364e-09
2.497359622e-11
2.735996409e-09
3.38541677e-11
2.517115965e-09
4.122246104e-11
2.292233325e-09
4.71938138e-11
2.062773711e-09
5.175121903e-11
1.830312993e-09
5.473973014e-11
1.596691492e-09
5.589108181e-11
1.364057918e-09
5.489718194e-11
1.134800389e-09
5.151797273e-11
9.114031207e-10
4.565594857e-11
6.964115752e-10
3.724831272e-11
4.92882887e-10
2.578378498e-11
3.05588621e-10
9.549509892e-12
1.430830288e-10
-1.524115333e-11
-3.466299264e-11
5.366932707e-11
-4.089058382e-10
3.482071416e-10
-8.144180292e-10
7.422702546e-10
-9.741624068e-10
1.158046849e-09
-1.008541833e-09
1.554022991e-09
-9.798344448e-10
1.903815604e-09
-9.127985531e-10
2.186282576e-09
-8.156460514e-10
2.382752424e-09
-6.917489709e-10
2.476938315e-09
-5.442160929e-10
2.455263783e-09
-3.76585623e-10
2.306863872e-09
-1.923719706e-10
2.023352429e-09
5.318302587e-12
1.598551696e-09
2.137805536e-10
1.028448373e-09
4.303666158e-10
3.113721442e-10
6.521265212e-10
-5.513599334e-10
8.751421156e-10
-1.554721393e-09
1.094571111e-09
-2.689589717e-09
1.304764219e-09
-3.942452768e-09
1.499473209e-09
-5.295056487e-09
1.671932209e-09
-6.724547283e-09
1.815416615e-09
-8.203947836e-09
1.923779363e-09
-9.7029737e-09
1.991925794e-09
-1.118920923e-08
2.016239947e-09
-1.262950029e-08
1.994964551e-09
-1.3991481e-08
1.92840999e-09
-1.524510807e-08
1.818985652e-09
-1.636403799e-08
1.671019326e-09
-1.732672428e-08
1.490347496e-09
-1.811712134e-08
1.283810183e-09
-1.872500475e-08
1.058691321e-09
-1.914594052e-08
8.222555877e-10
-1.938064584e-08
5.811204951e-10
-1.943472199e-08
3.409256125e-10
-1.931699724e-08
1.060904569e-10
-1.903895779e-08
-1.202607964e-10
-1.861375718e-08
-3.360648546e-10
-1.805519802e-08
-5.403866988e-10
-1.737703237e-08
-7.330030001e-10
-1.659274411e-08
-9.137873392e-10
-1.571557784e-08
-1.082263807e-09
-1.475887709e-08
-1.237251438e-09
-1.373634111e-08
-1.37684493e-09
-1.26621375e-08
-1.498712328e-09
-1.155092081e-08
-1.600504967e-09
-1.041763056e-08
-1.680290131e-09
-9.277143809e-09
-1.736838834e-09
-8.143899662e-09
-1.76973541e-09
-7.031529815e-09
-1.779384166e-09
-5.952574933e-09
-1.766900596e-09
-4.918300581e-09
-1.733909469e-09
-3.938574386e-09
-1.682413367e-09
-3.021804839e-09
-1.614662204e-09
-2.174929378e-09
-1.53303253e-09
-1.403418318e-09
-1.43995337e-09
-7.113621197e-10
-1.337756636e-09
-1.016031456e-10
-1.228608384e-09
4.241353988e-10
-1.114486444e-09
8.650653239e-10
-9.971081452e-10
1.221132753e-09
-8.778825513e-10
1.492822908e-09
-7.579050535e-10
1.680941261e-09
-6.379465869e-10
1.786413079e-09
-5.184822793e-10
1.810159206e-09
-3.997922844e-10
1.752966233e-09
-2.8198337e-10
1.61540062e-09
-1.649854451e-10
1.397831587e-09
-4.869877496e-11
1.100393355e-09
6.702111567e-11
7.230251715e-10
1.822895929e-10
2.656000117e-10
2.971045858e-10
-2.718959498e-10
4.112614333e-10
-8.891558097e-10
5.24285667e-10
-1.585336982e-09
6.354869165e-10
-2.358743475e-09
7.43827272e-10
-3.206594846e-09
8.480586566e-10
-4.124905479e-09
9.468334823e-10
-5.108236492e-09
1.038494592e-09
-6.149054864e-09
1.120489548e-09
-7.237022469e-09
1.189237186e-09
-8.358576572e-09
1.240515108e-09
-9.49681077e-09
1.26983758e-09
-1.063159246e-08
1.272776308e-09
-1.173994921e-08
1.245292861e-09
-1.279659929e-08
1.183962785e-09
-1.377461673e-08
1.086128074e-09
-1.46461803e-08
9.500589737e-10
-1.538344209e-08
7.751236347e-10
-1.595951189e-08
5.620068109e-10
-1.634958185e-08
3.129436054e-10
-1.653217225e-08
3.196222558e-11
-1.649053303e-08
-2.74890975e-10
-1.621411123e-08
-5.993448733e-10
-1.570006802e-08
-9.306213881e-10
-1.495459963e-08
-1.255485956e-09
-1.399322663e-08
-1.560921502e-09
-1.283906197e-08
-1.836081017e-09
-1.152115121e-08
-2.072297849e-09
-1.007275961e-08
-2.263313865e-09
-8.529662379e-09
-2.40524787e-09
-6.928516745e-09
-2.496511067e-09
-5.305313217e-09
-2.537671622e-09
-3.693995283e-09
-2.531263078e-09
-2.12528239e-09
-2.481493394e-09
-6.25763939e-10
-2.393870456e-09
7.82679724e-10
-2.274761618e-09
2.083124132e-09
-2.130934574e-09
3.263536754e-09
-1.96911479e-09
4.316444595e-09
-1.795641205e-09
5.238631897e-09
-1.616523349e-09
6.03046782e-09
-1.436891129e-09
6.694633613e-09
-1.2599367e-09
7.235859563e-09
-1.088414135e-09
7.660375725e-09
-9.246478976e-10
7.975442754e-09
-7.703142769e-10
8.189004503e-09
-6.265788337e-10
8.309380012e-09
-4.941685222e-10
8.345014735e-09
-3.734296399e-10
8.304272261e-09
-2.643969095e-10
8.195277533e-09
-1.668461453e-10
8.025794358e-09
-8.035017633e-11
7.803091209e-09
-4.292406115e-12
7.533866956e-09
6.208207413e-11
7.224236479e-09
1.195947081e-10
6.879696182e-09
1.691266524e-10
6.505105256e-09
2.11589891e-10
6.104711822e-09
2.478706225e-10
5.68223273e-09
2.787521958e-10
5.241000924e-09
3.048191952e-10
4.78417254e-09
3.263459979e-10
4.315011034e-09
3.432134753e-10
3.837151847e-09
3.548824187e-10
3.354804706e-09
3.605113155e-10
2.872752489e-09
3.592152292e-10
2.396081345e-09
3.504495607e-10
1.929691037e-09
3.343026987e-10
1.477940598e-09
3.112557436e-10
1.045268683e-09
2.807123042e-10
6.391855495e-10
2.378907797e-10
2.768726503e-10
1.693321716e-10
6.446413486e-11
7.612594988e-11
-6.603314979e-10
3.981628495e-10
-1.311473729e-09
8.178908773e-10
-1.56843162e-09
1.253449676e-09
-1.617903782e-09
1.656551751e-09
-1.555705976e-09
1.992794959e-09
-1.420442026e-09
2.232878555e-09
-1.225388354e-09
2.350552128e-09
-9.769171357e-10
2.323070454e-09
-6.815982336e-10
2.131890699e-09
-3.471250031e-10
1.762905495e-09
1.85986178e-11
1.206147547e-09
4.083562044e-10
4.554768853e-10
8.156333092e-10
-4.91261349e-10
1.233807916e-09
-1.631606813e-09
1.65529489e-09
-2.95823954e-09
2.071284592e-09
-4.458523114e-09
2.471567388e-09
-6.113672966e-09
2.844274622e-09
-7.898305655e-09
3.176473845e-09
-9.780597558e-09
3.454869784e-09
-1.172287411e-08
3.666773588e-09
-1.368265656e-08
3.801139234e-09
-1.561423267e-08
3.849537397e-09
-1.747063066e-08
3.806997372e-09
-1.920584925e-08
3.67265642e-09
-2.077715714e-08
3.450008094e-09
-2.214725235e-08
3.146839389e-09
-2.328607071e-08
2.774653142e-09
-2.417201446e-08
2.347715179e-09
-2.479255621e-08
1.881886999e-09
-2.514421142e-08
1.393462723e-09
-2.523203694e-08
8.982105942e-10
-2.506831263e-08
4.101283011e-10
-2.46715019e-08
-5.943934696e-11
-2.406378722e-08
-5.01943485e-10
-2.326982651e-08
-9.11946607e-10
-2.231529131e-08
-1.286463673e-09
-2.122560213e-08
-1.624912763e-09
-2.002466889e-08
-1.928702559e-09
-1.873414184e-08
-2.200095253e-09
-1.737344891e-08
-2.440967786e-09
-1.596023241e-08
-2.652036652e-09
-1.451086033e-08
-2.832729198e-09
-1.304079603e-08
-2.98163812e-09
-1.156471084e-08
-3.097146296e-09
-1.009644269e-08
-3.178037223e-09
-8.648889531e-09
-3.223842456e-09
-7.233953194e-09
-3.234919117e-09
-5.862534584e-09
-3.212418109e-09
-4.544579057e-09
-3.158130618e-09
-3.289177287e-09
-3.074268382e-09
-2.104632577e-09
-2.963362643e-09
-9.984011687e-10
-2.828278814e-09
2.287252164e-11
-2.672005377e-09
9.533553358e-10
-2.497618728e-09
1.788304332e-09
-2.308431605e-09
2.524120434e-09
-2.107669946e-09
3.158200227e-09
-1.898281577e-09
3.688817531e-09
-1.682861257e-09
4.114973958e-09
-1.463576686e-09
4.436176687e-09
-1.242098261e-09
4.652225288e-09
-1.019562411e-09
4.762973202e-09
-7.965903794e-10
4.768101846e-09
-5.733913119e-10
4.666986398e-09
-3.498478869e-10
4.458545797e-09
-1.25567146e-10
4.141254155e-09
9.993207204e-11
3.713113469e-09
3.27186791e-10
3.171742478e-09
5.566211829e-10
2.51454501e-09
7.884015047e-10
1.738955491e-09
1.022262201e-09
8.427919392e-10
1.257348098e-09
-1.750661913e-10
1.491931471e-09
-1.314053213e-09
1.723346395e-09
-2.571775402e-09
1.948602667e-09
-3.943620276e-09
2.164252645e-09
-5.422337968e-09
2.366123029e-09
-6.997021908e-09
2.548137465e-09
-8.65204599e-09
2.702102934e-09
-1.036661695e-08
2.818710404e-09
-1.211476272e-08
2.888319323e-09
-1.386565044e-08
2.901600527e-09
-1.558424816e-08
2.850207309e-09
-1.723219728e-08
2.727213855e-09
-1.876884936e-08
2.527445261e-09
-2.015246044e-08
2.247792433e-09
-2.134152329e-08
1.887570655e-09
-2.229627241e-08
1.448910196e-09
-2.298034679e-08
9.371696366e-10
-2.33625817e-08
3.613310185e-10
-2.341892545e-08
-2.656487902e-10
-2.313441461e-08
-9.265595919e-10
-2.25052098e-08
-1.599646514e-09
-2.154069401e-08
-2.25847132e-09
-2.026332895e-08
-2.876845611e-09
-1.870619503e-08
-3.433338749e-09
-1.691071086e-08
-3.910879501e-09
-1.492426238e-08
-4.297131712e-09
-1.279786936e-08
-4.584455464e-09
-1.058390813e-08
-4.76975186e-09
-8.333926677e-09
-4.854248874e-09
-6.096633016e-09
-4.843141504e-09
-3.916149073e-09
-4.745035206e-09
-1.830642891e-09
-4.571198859e-09
1.285772817e-10
-4.334664873e-09
1.937461261e-09
-4.049274673e-09
3.579120853e-09
-3.728755707e-09
5.043331999e-09
-3.385950719e-09
6.325697756e-09
-3.032578967e-09
7.427316548e-09
-2.679171963e-09
8.353015315e-09
-2.332585373e-09
9.110349813e-09
-1.998267733e-09
9.708767339e-09
-1.68043279e-09
1.015893651e-08
-1.381995537e-09
1.047222481e-08
-1.104864217e-09
1.066029085e-08
-8.501114493e-10
1.073476735e-08
-6.181202613e-10
1.070702238e-08
-4.087313692e-10
1.058797469e-08
-2.213436662e-10
1.038793793e-08
-5.499060214e-11
1.01165145e-08
9.159742923e-11
9.782531046e-09
2.198888798e-10
9.39400078e-09
3.314781735e-10
8.95808801e-09
4.280524047e-10
8.481118487e-09
5.11330455e-10
7.968622904e-09
5.829669477e-10
7.425456797e-09
6.444021674e-10
6.855997648e-09
6.966842561e-10
6.264428839e-09
7.402678437e-10
5.655087321e-09
7.748711892e-10
5.032805213e-09
7.994602703e-10
4.403117165e-09
8.124784507e-10
3.772228114e-09
8.123738842e-10
3.146615877e-09
7.983257038e-10
2.532386693e-09
7.70791305e-10
1.934880271e-09
7.31016022e-10
1.359771864e-09
6.780728766e-10
8.180660617e-10
6.018502709e-10
3.387754483e-10
4.70878674e-10
2.25493438e-10
7.625762055e-11
-9.114267066e-10
3.866859072e-10
-1.796464449e-09
7.826019437e-10
-2.138357897e-09
1.183483811e-09
-2.191961884e-09
1.540010362e-09
-2.084253501e-09
1.814638969e-09
-1.865583554e-09
1.974015006e-09
-1.553369741e-09
1.987864723e-09
-1.157034257e-09
1.830149808e-09
-6.873377746e-10
1.480227363e-09
-1.573346014e-10
9.232345036e-10
4.193155207e-10
1.498377214e-10
1.029879349e-09
-8.436992513e-10
1.662245256e-09
-2.055105822e-09
2.303762276e-09
-3.476390251e-09
2.941089406e-09
-5.093370629e-09
3.55916696e-09
-6.884684606e-09
4.14053756e-09
-8.821481331e-09
4.665754053e-09
-1.086740019e-08
5.114287194e-09
-1.2979138e-08
5.465806961e-09
-1.510761091e-08
5.701752816e-09
-1.719971339e-08
5.806978092e-09
-1.920063441e-08
5.771279116e-09
-2.105654526e-08
5.590617597e-09
-2.27174923e-08
5.26795438e-09
-2.414010721e-08
4.813351931e-09
-2.529001954e-08
4.243559848e-09
-2.61435272e-08
3.580747395e-09
-2.668839965e-08
2.850633122e-09
-2.692373985e-08
2.080426571e-09
-2.685912337e-08
1.296889209e-09
-2.651329349e-08
5.249792402e-10
-2.591194995e-08
-2.141674858e-10
-2.508547025e-08
-9.047891856e-10
-2.406671695e-08
-1.535712465e-09
-2.288849374e-08
-2.101336908e-09
-2.158200433e-08
-2.600485152e-09
-2.017597966e-08
-3.035136089e-09
-1.869583142e-08
-3.41017903e-09
-1.716335265e-08
-3.731728194e-09
-1.5597053e-08
-4.005212757e-09
-1.401289936e-08
-4.234167701e-09
-1.242504036e-08
-4.420093883e-09
-1.084614673e-08
-4.563235312e-09
-9.287444036e-09
-4.66351495e-09
-7.75861264e-09
-4.721240369e-09
-6.267761976e-09
-4.737396046e-09
-4.821624997e-09
-4.71350276e-09
-3.425990866e-09
-4.651382991e-09
-2.086177015e-09
-4.552982146e-09
-8.075272979e-10
-4.420145877e-09
4.041317499e-10
-4.254585166e-09
1.542403889e-09
-4.058276907e-09
2.600659201e-09
-3.833694798e-09
3.572350395e-09
-3.583750666e-09
4.45113521e-09
-3.311767479e-09
5.231241351e-09
-3.021400735e-09
5.907764228e-09
-2.716369228e-09
6.476742214e-09
-2.400174148e-09
6.935084247e-09
-2.075856884e-09
7.280371119e-09
-1.745797601e-09
7.51057786e-09
-1.411610377e-09
7.623765451e-09
-1.074093764e-09
7.617759043e-09
-7.333396942e-10
7.489955049e-09
-3.888861222e-10
7.23703101e-09
-3.98138335e-11
6.854965903e-09
3.15006191e-10
6.338962595e-09
6.767751143e-10
5.683583778e-09
1.046481242e-09
4.883000064e-09
1.424626628e-09
3.931397958e-09
1.8109204e-09
2.823525234e-09
2.203959126e-09
1.555312919e-09
2.600897882e-09
1.247228446e-10
2.997148745e-09
-1.466945024e-09
3.386521339e-09
-3.215099303e-09
3.762441674e-09
-5.111619943e-09
4.117377565e-09
-7.143056737e-09
4.440082988e-09
-9.289162225e-09
4.715681214e-09
-1.152262276e-08
4.927851939e-09
-1.380929849e-08
5.060096423e-09
-1.6108781e-08
5.096702283e-09
-1.837532504e-08
5.023772606e-09
-2.055898542e-08
4.829897573e-09
-2.260695543e-08
4.506692881e-09
-2.446509463e-08
4.049348575e-09
-2.607967485e-08
3.457215092e-09
-2.739932543e-08
2.734434228e-09
-2.837717531e-08
1.89054618e-09
-2.897310001e-08
9.410489394e-10
-2.915609074e-08
-9.218417288e-11
-2.890661885e-08
-1.18057721e-09
-2.821918438e-08
-2.288470664e-09
-2.710520915e-08
-3.372513986e-09
-2.559258933e-08
-4.389833113e-09
-2.372236243e-08
-5.305931774e-09
-2.154597807e-08
-6.093242139e-09
-1.912255246e-08
-6.731649105e-09
-1.651613687e-08
-7.20844424e-09
-1.379298055e-08
-7.51818673e-09
-1.101878152e-08
-7.662487661e-09
-8.256041538e-09
-7.649554788e-09
-5.561674385e-09
-7.493381976e-09
-2.985050863e-09
-7.212567241e-09
-5.666385933e-10
-6.828825203e-09
1.662670324e-09
-6.365354626e-09
3.681517803e-09
-5.845194568e-09
5.477260838e-09
-5.28971226e-09
7.044961254e-09
-4.718154076e-09
8.387278945e-09
-4.148511056e-09
9.51190443e-09
-3.592560344e-09
1.042988963e-08
-3.059053933e-09
1.115442413e-08
-2.554312409e-09
1.169991041e-08
-2.082471726e-09
1.208126555e-08
-1.645994939e-09
1.231342914e-08
-1.246028505e-09
1.241099682e-08
-8.827016754e-10
1.238798951e-08
-5.553559351e-10
1.225767223e-08
-2.627257252e-10
1.203241378e-08
-3.04047493e-12
1.172361247e-08
2.258644549e-10
1.134165526e-08
4.263900296e-10
1.089590137e-08
6.010968908e-10
1.039466504e-08
7.526558619e-10
9.845250822e-09
8.837608121e-10
9.254013109e-09
9.969704108e-10
8.626513078e-09
1.094497611e-09
7.967747241e-09
1.177927e-09
7.28248438e-09
1.247931459e-09
6.575645059e-09
1.304058167e-09
5.852686632e-09
1.344731535e-09
5.119835937e-09
1.367621051e-09
4.384051326e-09
1.370436233e-09
3.652634563e-09
1.352009552e-09
2.932647973e-09
1.31304078e-09
2.230761233e-09
1.255161429e-09
1.555055992e-09
1.176032743e-09
9.216737274e-10
1.057483897e-09
3.707727827e-10
8.440319266e-10
4.185200237e-10
6.952852701e-11
-1.155192447e-09
3.588078527e-10
-2.259675371e-09
7.21269436e-10
-2.674129993e-09
1.078474132e-09
-2.7215241e-09
1.381971523e-09
-2.558808933e-09
1.593771463e-09
-2.246759454e-09
1.679363038e-09
-1.806239437e-09
1.607282577e-09
-1.249689893e-09
1.350821675e-09
-5.926007604e-10
8.895248567e-10
1.457393385e-10
2.097638707e-10
9.448389523e-10
-6.952111045e-10
1.785078336e-09
-1.824836638e-09
2.647002971e-09
-3.171651244e-09
3.511008785e-09
-4.721302869e-09
4.356799396e-09
-6.451673435e-09
5.161470907e-09
-8.332606754e-09
5.899431732e-09
-1.0325882e-08
6.543084812e-09
-1.238569968e-08
7.064230284e-09
-1.445982687e-08
7.436032365e-09
-1.649145263e-08
7.635300353e-09
-1.84217051e-08
7.644784394e-09
-2.019270026e-08
7.455260384e-09
-2.175085402e-08
7.066989196e-09
-2.305024192e-08
6.490600801e-09
-2.405543127e-08
5.746666048e-09
-2.474373214e-08
4.864696627e-09
-2.510624186e-08
3.880641149e-09
-2.514758833e-08
2.833764782e-09
-2.488452577e-08
1.763395325e-09
-2.434380462e-08
7.063066101e-10
-2.355977683e-08
-3.049073774e-10
-2.257117819e-08
-1.24465737e-09
-2.14181809e-08
-2.095504412e-09
-2.013805703e-08
-2.849475441e-09
-1.876230412e-08
-3.506138095e-09
-1.731845003e-08
-4.068406038e-09
-1.583031023e-08
-4.541982902e-09
-1.431741605e-08
-4.936160766e-09
-1.279521469e-08
-5.261402372e-09
-1.12760247e-08
-5.526651038e-09
-9.770299801e-09
-5.737787492e-09
-8.287469916e-09
-5.897829079e-09
-6.835981901e-09
-6.008448212e-09
-5.422695033e-09
-6.071482991e-09
-4.05225256e-09
-6.089632871e-09
-2.726838767e-09
-6.066351162e-09
-1.446493299e-09
-6.005163313e-09
-2.100377886e-10
-5.908842267e-09
9.834943168e-10
-5.778765429e-09
2.133885819e-09
-5.615182931e-09
3.23901572e-09
-5.417472152e-09
4.294285993e-09
-5.18470635e-09
5.292726475e-09
-4.916588255e-09
6.225648308e-09
-4.613950019e-09
7.083500826e-09
-4.278956954e-09
7.856703051e-09
-3.914989078e-09
8.536337274e-09
-3.526249422e-09
9.114563001e-09
-3.117209466e-09
9.584742452e-09
-2.692065435e-09
9.941311321e-09
-2.254282617e-09
1.017946037e-08
-1.806289765e-09
1.029471071e-08
-1.34931531e-09
1.028243647e-08
-8.834353814e-10
1.013752752e-08
-4.077966546e-10
9.853928395e-09
7.920625629e-11
9.424636196e-09
5.79614141e-10
8.841541465e-09
1.095587136e-09
8.095584009e-09
1.628976464e-09
7.177092521e-09
2.180849041e-09
6.076336887e-09
2.75097076e-09
4.78429646e-09
3.337292779e-09
3.293573361e-09
3.935464413e-09
1.599345334e-09
4.538494571e-09
-2.993889048e-10
5.13658278e-09
-2.399002857e-09
5.718753902e-09
-4.690894076e-09
6.272716056e-09
-7.159543662e-09
6.78047539e-09
-9.780374138e-09
7.218193581e-09
-1.251982713e-08
7.560553783e-09
-1.533597419e-08
7.7825572e-09
-1.817929985e-08
7.860647143e-09
-2.099380476e-08
7.774085326e-09
-2.371831397e-08
7.505843096e-09
-2.628801893e-08
7.043428523e-09
-2.863631864e-08
6.379754666e-09
-3.069696077e-08
5.514078748e-09
-3.240647047e-08
4.452940106e-09
-3.370679035e-08
3.211006679e-09
-3.454805752e-08
1.811752943e-09
-3.48914141e-08
2.879375623e-10
-3.471178632e-08
-1.318142725e-09
-3.400068654e-08
-2.954332646e-09
-3.277010894e-08
-4.556723438e-09
-3.105200833e-08
-6.062167201e-09
-2.889395254e-08
-7.420669689e-09
-2.635613912e-08
-8.59193928e-09
-2.350855727e-08
-9.545968811e-09
-2.042807249e-08
-1.026306911e-08
-1.719531447e-08
-1.073391537e-08
-1.389133977e-08
-1.095955335e-08
-1.059420831e-08
-1.095103281e-08
-7.375715851e-09
-1.072841992e-08
-4.298575233e-09
-1.031917752e-08
-1.414329062e-09
-9.75595359e-09
1.237840972e-09
-9.074037667e-09
3.631256577e-09
-8.308709454e-09
5.750736601e-09
-7.492568863e-09
7.590980209e-09
-6.654495707e-09
9.157059053e-09
-5.822646782e-09
1.046094512e-08
-5.015529808e-09
1.15185845e-08
-4.245747886e-09
1.234822802e-08
-3.521863942e-09
1.296915449e-08
-2.84901983e-09
1.340074389e-08
-2.229800006e-09
1.366187124e-08
-1.664911263e-09
1.377053595e-08
-1.153688278e-09
1.37436375e-08
-6.944800128e-10
1.359685269e-08
-2.849090886e-10
1.334454907e-08
7.799575009e-11
1.299977209e-08
3.97603152e-10
1.257427669e-08
6.77510928e-10
1.207853897e-08
9.214661821e-10
1.152178773e-08
1.13331503e-09
1.091205738e-08
1.316878618e-09
1.025629269e-08
1.475757302e-09
9.560517415e-09
1.613037079e-09
8.830107319e-09
1.730925707e-09
8.070149726e-09
1.830362046e-09
7.285860135e-09
1.91074256e-09
6.483000839e-09
1.969935528e-09
5.668152875e-09
2.004778127e-09
4.848739641e-09
2.012136732e-09
4.032730243e-09
1.99029325e-09
3.228233991e-09
1.939803172e-09
2.443690598e-09
1.861965535e-09
1.690263423e-09
1.751715603e-09
9.894013015e-10
1.580598362e-09
3.898680019e-10
1.265818082e-09
6.30641483e-10
6.259777981e-11
-1.391295387e-09
3.338622038e-10
-2.704094463e-09
6.695800207e-10
-3.182292085e-09
9.930840075e-10
-3.216397494e-09
1.257392368e-09
-2.993025911e-09
1.425579242e-09
-2.582987387e-09
1.463990017e-09
-2.010395511e-09
1.342125842e-09
-1.290826896e-09
1.034652485e-09
-4.44937095e-10
5.23178021e-10
5.010359735e-10
-2.028925031e-10
1.518782329e-09
-1.146009784e-09
2.580484091e-09
-2.300397037e-09
3.658395141e-09
-3.652393779e-09
4.72495032e-09
-5.180054911e-09
5.751473939e-09
-6.852928634e-09
6.706451225e-09
-8.632074285e-09
7.555715112e-09
-1.047052949e-08
8.263564702e-09
-1.231440553e-08
8.794817674e-09
-1.410475071e-08
9.117558298e-09
-1.578022986e-08
9.206216413e-09
-1.728044594e-08
9.04452858e-09
-1.854979626e-08
8.628133758e-09
-1.954131678e-08
7.966008535e-09
-2.022044229e-08
7.081255781e-09
-2.056764788e-08
6.00953452e-09
-2.058025308e-08
4.797205448e-09
-2.027215107e-08
3.496775221e-09
-1.967195119e-08
2.162135635e-09
-1.881980949e-08
8.440704069e-10
-1.776346574e-08
-4.131714377e-10
-1.655474433e-08
-1.572983077e-09
-1.524528027e-08
-2.609961696e-09
-1.387814517e-08
-3.514993201e-09
-1.248472895e-08
-4.291883506e-09
-1.108753097e-08
-4.948471662e-09
-9.702485002e-09
-5.494048909e-09
-8.341281653e-09
-5.938292356e-09
-7.011116047e-09
-6.294800506e-09
-5.715933935e-09
-6.577373204e-09
-4.458237673e-09
-6.796741179e-09
-3.241049152e-09
-6.958857434e-09
-2.068710562e-09
-7.066187617e-09
-9.461884305e-10
-7.120581095e-09
1.229831552e-10
-7.126028691e-09
1.138733188e-09
-7.08921449e-09
2.10549112e-09
-7.018382157e-09
3.031825329e-09
-6.921231514e-09
3.92863282e-09
-6.802689338e-09
4.806817158e-09
-6.663793928e-09
5.674710948e-09
-6.501764986e-09
6.536149581e-09
-6.310953856e-09
7.389586969e-09
-6.08451621e-09
8.228147307e-09
-5.816284226e-09
9.04057128e-09
-5.502212395e-09
9.812705429e-09
-5.141129285e-09
1.052915146e-08
-4.734792792e-09
1.117470744e-08
-4.287310167e-09
1.173539534e-08
-3.804161586e-09
1.219896433e-08
-3.291148306e-09
1.255493653e-08
-2.753461432e-09
1.279427124e-08
-2.194996669e-09
1.290880158e-08
-1.617949958e-09
1.289053393e-08
-1.022703716e-09
1.273107591e-08
-4.081072476e-10
1.242094716e-08
2.281941456e-10
1.194947831e-08
8.894112084e-10
1.130456166e-08
1.578971217e-09
1.047278415e-08
2.299927611e-09
9.439864547e-09
3.054179371e-09
8.191387184e-09
3.84167054e-09
6.713802045e-09
4.659598489e-09
4.995644916e-09
5.501729605e-09
3.028790361e-09
6.357984234e-09
8.09403944e-10
7.214561845e-09
-1.660751257e-09
8.055175654e-09
-4.374163828e-09
8.862028428e-09
-7.313226642e-09
9.607167798e-09
-1.044910317e-08
1.025553965e-08
-1.374208189e-08
1.077080579e-08
-1.714247856e-08
1.111768e-08
-2.059150027e-08
1.126304252e-08
-2.402236378e-08
1.117759705e-08
-2.736164456e-08
1.083706044e-08
-3.053103026e-08
1.022343073e-08
-3.344953593e-08
9.326392566e-09
-3.603619828e-08
8.144759873e-09
-3.82131471e-08
6.687827255e-09
-3.990892642e-08
4.976457692e-09
-4.106188406e-08
3.043839594e-09
-4.162352984e-08
9.358838286e-10
-4.15616625e-08
-1.288758275e-09
-4.086320596e-08
-3.558849597e-09
-3.953905343e-08
-5.786278001e-09
-3.76235275e-08
-7.884058938e-09
-3.516921474e-08
-9.784110594e-09
-3.224406288e-08
-1.143069049e-08
-2.892882846e-08
-1.278092614e-08
-2.531418987e-08
-1.380515871e-08
-2.149732923e-08
-1.448752195e-08
-1.757790474e-08
-1.482653786e-08
-1.365359761e-08
-1.483513623e-08
-9.815638582e-09
-1.453971455e-08
-6.144694372e-09
-1.397810975e-08
-2.707608972e-09
-1.319656038e-08
4.446888017e-10
-1.224598235e-08
3.277847124e-09
-1.117791267e-08
5.773176221e-09
-1.004027538e-08
7.924822751e-09
-8.874452143e-09
9.74076608e-09
-7.722122373e-09
1.12391591e-08
-6.611703595e-09
1.244313476e-08
-5.560574061e-09
1.337829864e-08
-4.579624918e-09
1.407091827e-08
-3.674593943e-09
1.454664435e-08
-2.847432621e-09
1.482974743e-08
-2.097513359e-09
1.494272064e-08
-1.422479737e-09
1.490611496e-08
-8.18854443e-10
1.473851724e-08
-2.824307346e-10
1.445656938e-08
1.915596368e-10
1.407510005e-08
6.081661604e-10
1.360724677e-08
9.725405518e-10
1.306455079e-08
1.28990469e-09
1.245704972e-08
1.565505069e-09
1.17933846e-08
1.804471721e-09
1.108094338e-08
2.01158673e-09
1.032607094e-08
2.190923664e-09
9.534364241e-09
2.345386906e-09
8.711068366e-09
2.476238816e-09
7.861524032e-09
2.582749658e-09
6.99162523e-09
2.66222119e-09
6.108150134e-09
2.710590898e-09
5.218867933e-09
2.723724111e-09
4.332381219e-09
2.699063341e-09
3.457925622e-09
2.636528651e-09
2.605855337e-09
2.536296927e-09
1.790423754e-09
2.389405402e-09
1.037704903e-09
2.155570429e-09
4.026899157e-10
1.723084309e-09
8.555856045e-10
5.806547173e-11
-1.622008055e-09
3.193237581e-10
-3.137590649e-09
6.41585608e-10
-3.675992267e-09
9.495283194e-10
-3.694571391e-09
1.197817707e-09
-3.409925414e-09
1.351507189e-09
-2.903240933e-09
1.379205671e-09
-2.202177182e-09
1.252988631e-09
-1.325782314e-09
9.505534891e-10
-3.003564357e-10
4.571886763e-10
8.402359456e-10
-2.331276225e-10
2.058928606e-09
-1.11716795e-09
3.318578679e-09
-2.182823795e-09
4.582461931e-09
-3.408781365e-09
5.813699055e-09
-4.7645988e-09
6.974378569e-09
-6.210810437e-09
8.023875006e-09
-7.699396763e-09
8.919398869e-09
-9.174863185e-09
9.617744281e-09
-1.057607312e-08
1.007811947e-08
-1.183899289e-08
1.026578245e-08
-1.290035704e-08
1.015607038e-08
-1.370190399e-08
9.737890903e-09
-1.419527156e-08
9.016973025e-09
-1.434632856e-08
8.016702172e-09
-1.413939518e-08
6.77876339e-09
-1.357935848e-08
5.359441976e-09
-1.269265623e-08
3.826605503e-09
-1.152480976e-08
2.251677906e-09
-1.013640166e-08
7.033450578e-10
-8.597595958e-09
-7.584054299e-10
-6.983177398e-09
-2.085137322e-09
-5.365364741e-09
-3.243206668e-09
-3.799904733e-09
-4.22396588e-09
-2.322667316e-09
-5.038247185e-09
-9.527514214e-10
-5.706402458e-09
3.056073787e-10
-6.250690114e-09
1.456223098e-09
-6.687810128e-09
2.506176571e-09
-7.029968196e-09
3.466081866e-09
-7.293263212e-09
4.34739719e-09
-7.491778554e-09
5.159795134e-09
-7.634311107e-09
5.908021767e-09
-7.722285541e-09
6.591123993e-09
-7.753345151e-09
7.204507216e-09
-7.726903286e-09
7.744683012e-09
-7.649327341e-09
8.214097462e-09
-7.534358351e-09
8.623752291e-09
-7.399618138e-09
8.993039815e-09
-7.26164643e-09