/*--------------------------------*- C++ -*----------------------------------*\
| =========                 |                                                 |
| \\      /  F ield         | OpenFOAM: The Open Source CFD Toolbox           |
|  \\    /   O peration     | Version:  2412                                  |
|   \\  /    A nd           | Website:  www.openfoam.com                      |
|    \\/     M anipulation  |                                                 |
\*---------------------------------------------------------------------------*/
FoamFile
{
    version     2.0;
    format      ascii;
    arch        "LSB;label=32;scalar=64";
    class       volScalarField;
    location    "0.05";
    object      rho;
}
// * * * * * * * * * * * * * * * * * * * * * * * * * * * * * * * * * * * * * //

dimensions      [1 -3 0 0 0 0 0];

internalField   nonuniform List<scalar> 
12008
(
2.173834161
2.173824916
2.173806291
2.173776416
2.173732926
2.173672582
2.173591224
2.173483734
2.17334403
2.173165114
2.172939182
2.172657826
2.172312342
2.171894137
2.171395249
2.170808955
2.170130452
2.169357553
2.168491348
2.167536775
2.166503011
2.165403645
2.164256574
2.163083611
2.161909808
2.160762538
2.159670389
2.158661958
2.157764613
2.157003335
2.156399699
2.155971108
2.155732621
2.155685883
2.155832252
2.156168206
2.156683583
2.15736297
2.158186516
2.159130834
2.160170041
2.16127688
2.162423887
2.163584436
2.164733719
2.165849567
2.16691306
2.167908927
2.16882573
2.169655848
2.17039527
2.171043252
2.171601852
2.172075398
2.172469916
2.172792561
2.173051081
2.173253325
2.17340684
2.173518548
2.173594519
2.173639823
2.173658521
2.173653737
2.173627636
2.173581677
2.173516895
2.173434062
2.173333906
2.173217316
2.173085507
2.172940117
2.172783239
2.172617353
2.1724452
2.172269583
2.172093129
2.171918069
2.17174605
2.171578039
2.171414343
2.171254752
2.171098801
2.170946108
2.170796738
2.170651533
2.170512343
2.170382117
2.170264835
2.170165273
2.170088636
2.17004052
2.170025161
2.170045776
2.170104868
2.170203137
2.170339517
2.170511194
2.170713787
2.17094165
2.171188252
2.171446589
2.171709604
2.171970577
2.172223454
2.172463105
2.172685489
2.172887733
2.173068122
2.173226012
2.173361697
2.173476225
2.173571211
2.173648641
2.173710695
2.173759601
2.173797514
2.173826428
2.173848127
2.173864153
2.173875803
2.173884141
2.173890016
2.173894092
2.173896876
2.173898747
2.173899985
2.17390079
2.173901304
2.173901624
2.173901819
2.173901933
2.173901998
2.173902035
2.17390206
2.173902085
2.173902122
2.173902183
2.173902277
2.17390239
2.173826668
2.173816565
2.173796103
2.173763316
2.173715639
2.173649563
2.17356058
2.173443149
2.173290688
2.173095628
2.172849536
2.17254334
2.172167652
2.171713219
2.171171483
2.170535237
2.169799356
2.168961537
2.168023005
2.166989108
2.165869722
2.164679417
2.163437328
2.162166719
2.160894256
2.159649025
2.158461375
2.157361653
2.156378929
2.155539793
2.154867279
2.154379961
2.15409579
2.154016755
2.15414315
2.154474005
2.154999452
2.155704142
2.156567948
2.157566812
2.158673782
2.159860145
2.16109659
2.162354404
2.163606516
2.164828407
2.165998824
2.167100279
2.168119319
2.169046579
2.16987663
2.170607653
2.171240987
2.171780583
2.172232404
2.172603812
2.172902983
2.17313836
2.173318187
2.173450134
2.173541018
2.173596632
2.173621687
2.173619844
2.173593832
2.173545378
2.173475897
2.173386444
2.173277983
2.173151609
2.173008711
2.172851066
2.172680844
2.172500525
2.172312737
2.172120037
2.171924667
2.171728335
2.171532071
2.171336191
2.171140409
2.170944081
2.170746576
2.170547702
2.170348129
2.170149735
2.169955804
2.169771042
2.169601393
2.169453668
2.169335041
2.169252703
2.169213491
2.169220214
2.169276404
2.169382953
2.169538482
2.169739381
2.169980103
2.170253552
2.170551551
2.170865356
2.171186159
2.171505561
2.171815977
2.172110944
2.172385335
2.172635456
2.17285904
2.173055155
2.173224036
2.173366869
2.173485561
2.173582499
2.17366033
2.17372178
2.1737695
2.173805954
2.173833356
2.173853625
2.173868383
2.173878959
2.173886422
2.173891607
2.173895153
2.17389754
2.173899122
2.173900152
2.173900812
2.173901225
2.173901477
2.173901626
2.173901712
2.17390176
2.173901789
2.173901813
2.173901844
2.173901898
2.173902009
2.17390228
2.17381202
2.173800111
2.173775928
2.173737245
2.173681101
2.173603445
2.173499088
2.173361661
2.173183614
2.172956279
2.172670026
2.172314518
2.171879099
2.171353308
2.170727514
2.169993659
2.16914607
2.168182275
2.16710377
2.165916649
2.164632029
2.163266186
2.161840395
2.160380428
2.158915753
2.15747848
2.15610213
2.154820309
2.153665375
2.152667173
2.151851902
2.151241131
2.15085491
2.150702823
2.150779878
2.151090642
2.151626333
2.152372117
2.153307627
2.154407721
2.155643489
2.15698343
2.15839472
2.159844501
2.161301121
2.162735248
2.164120807
2.165435691
2.166662222
2.167787351
2.168802613
2.169703865
2.170490849
2.171166622
2.171736906
2.172209388
2.172593037
2.17289744
2.173132224
2.173306556
2.173428775
2.173506129
2.173544661
2.173549196
2.173523635
2.173470263
2.173391303
2.173288418
2.17316308
2.173016815
2.172851364
2.172668755
2.172471268
2.172261294
2.172041123
2.171812676
2.17157726
2.171335381
2.171086696
2.170830125
2.170564164
2.170287352
2.169998858
2.169699077
2.169390157
2.169076348
2.168764113
2.16846196
2.168180018
2.167929384
2.167721336
2.167566492
2.167475982
2.167453956
2.167503869
2.167627947
2.167824093
2.168087032
2.16840877
2.168779165
2.169186585
2.169618606
2.17006271
2.170506927
2.170940392
2.171353785
2.171739633
2.172092461
2.172408802
2.172687076
2.172927369
2.173131147
2.173300925
2.173439937
2.173551827
2.17364038
2.173709307
2.173762083
2.17380184
2.173831312
2.173852814
2.173868255
2.173879171
2.173886769
2.173891976
2.173895488
2.173897821
2.173899344
2.173900322
2.173900938
2.173901317
2.173901544
2.173901675
2.173901747
2.173901787
2.17390181
2.17390183
2.173901856
2.173901908
2.173902188
2.173789338
2.173774673
2.173744812
2.173697144
2.173628118
2.173532894
2.173405284
2.173237718
2.17302125
2.172745651
2.172399598
2.171970998
2.171447453
2.170816864
2.170068181
2.169192244
2.168182698
2.167036897
2.165756735
2.164349307
2.162827338
2.1612093
2.159519201
2.157786027
2.156042881
2.154325869
2.152672812
2.151121861
2.149710092
2.148472168
2.147439113
2.146637271
2.146087936
2.145813941
2.145804353
2.146069557
2.146603378
2.147392265
2.148416105
2.149648818
2.151059316
2.15261267
2.15427143
2.155997047
2.157751335
2.159497882
2.161203335
2.162838452
2.164378884
2.165805641
2.167105242
2.168269578
2.169295525
2.170184364
2.170941063
2.171573478
2.172091508
2.172506281
2.172829384
2.173072192
2.173245333
2.173358294
2.173419199
2.173434737
2.173410569
2.173350197
2.173256896
2.173133434
2.172982112
2.172805138
2.172604772
2.172383352
2.172143179
2.1718863
2.171614198
2.171327494
2.17102571
2.170707181
2.1703692
2.170008413
2.169621477
2.169205895
2.168760929
2.168288432
2.167793476
2.167284648
2.166773951
2.166276304
2.165808701
2.165389115
2.165035283
2.16476348
2.164589675
2.164523255
2.164564306
2.16471826
2.164981745
2.165346761
2.165801397
2.166330665
2.166917436
2.16754342
2.168190145
2.168839867
2.169476376
2.170085644
2.170656292
2.171179835
2.171650729
2.17206623
2.172426086
2.172732136
2.172987836
2.173197769
2.173367191
2.173501624
2.173606525
2.17368704
2.173747838
2.17379301
2.17382604
2.17384981
2.17386665
2.173878395
2.173886459
2.173891911
2.173895539
2.173897916
2.173899446
2.173900414
2.173901013
2.173901375
2.173901586
2.173901704
2.173901765
2.173901796
2.17390181
2.173901819
2.173901849
2.173902123
2.173757866
2.173739447
2.173701865
2.173642003
2.173555545
2.173436623
2.173277768
2.173069879
2.172802247
2.172462686
2.172037785
2.171513309
2.170874768
2.170108138
2.16920073
2.168142151
2.166925323
2.165547465
2.16401098
2.162324132
2.160501475
2.158563942
2.156538606
2.154458089
2.152359684
2.150284217
2.148274734
2.146375056
2.14462828
2.143075289
2.141753345
2.140694802
2.139925919
2.13947297
2.13933736
2.139522957
2.140030585
2.140848618
2.141958086
2.143332825
2.144940382
2.146743015
2.148698855
2.150763293
2.152890599
2.155035652
2.157155668
2.159211764
2.161170241
2.163003491
2.164690495
2.166216929
2.167574907
2.168762447
2.1697827
2.170643036
2.171354039
2.171928464
2.172380235
2.17272353
2.172972003
2.173138191
2.173233127
2.173266169
2.173245409
2.173176516
2.17306399
2.172912367
2.172725175
2.172505576
2.172256477
2.171980462
2.17167957
2.17135494
2.171006421
2.170632239
2.170228849
2.16979107
2.169312581
2.1687868
2.16820808
2.167573076
2.166882073
2.16614008
2.165357477
2.1645501
2.163738727
2.162948018
2.162205032
2.161537517
2.160972134
2.160532785
2.160241636
2.16011568
2.160148287
2.160350028
2.160715442
2.161232523
2.161883791
2.162647463
2.163498721
2.164411038
2.165357507
2.166312106
2.167250856
2.168152772
2.169000591
2.169781192
2.170485734
2.171109496
2.171651495
2.172113921
2.172501463
2.172820595
2.173078893
2.173284424
2.173445244
2.173569007
2.1736627
2.173732486
2.173783635
2.173820531
2.173846727
2.173865037
2.173877636
2.173886171
2.173891864
2.173895602
2.173898015
2.173899547
2.173900501
2.173901081
2.173901423
2.173901617
2.173901719
2.173901768
2.173901786
2.17390179
2.17390181
2.17390208
2.173716694
2.17369348
2.17364605
2.173570677
2.173462116
2.173313273
2.173115151
2.172856843
2.172525583
2.172106931
2.171585097
2.17094345
2.170165198
2.169234246
2.168136182
2.166859359
2.165395995
2.163743223
2.161903992
2.159887762
2.157710909
2.155396818
2.152975649
2.150483796
2.147963061
2.145459574
2.143022506
2.140702563
2.13855032
2.136614449
2.134939963
2.133566519
2.132526844
2.131847851
2.131545266
2.131617349
2.132068866
2.132890652
2.134065653
2.135568666
2.137367704
2.139424475
2.14169489
2.144129951
2.146677174
2.149282485
2.15189241
2.154456315
2.15692843
2.159269473
2.161447753
2.163439719
2.165230003
2.166811029
2.168182272
2.169349257
2.170322386
2.171115653
2.171745346
2.172228816
2.172583373
2.172825408
2.172969762
2.173029381
2.173015559
2.172937439
2.172800824
2.172612909
2.17237891
2.172103219
2.171789418
2.171440076
2.171056344
2.170637454
2.170180245
2.169678886
2.169124959
2.168508025
2.167816734
2.167040461
2.166171287
2.165206039
2.164148092
2.163008605
2.161806987
2.160570472
2.159332857
2.158132556
2.157010232
2.156006291
2.155158474
2.154499756
2.154060057
2.153864206
2.153895341
2.154171171
2.154682942
2.155413167
2.156337125
2.157424368
2.158640323
2.159947941
2.161309398
2.162687773
2.164048628
2.1653614
2.166600496
2.16774603
2.168784133
2.169706854
2.170511713
2.171200971
2.171780696
2.172259749
2.172648786
2.172959352
2.173203115
2.173391273
2.173534128
2.173640828
2.173719241
2.173775948
2.17381631
2.173844588
2.173864091
2.173877333
2.173886185
2.17389201
2.173895782
2.173898184
2.173899685
2.173900604
2.173901152
2.173901467
2.173901638
2.173901722
2.173901756
2.173901763
2.173901782
2.173902051
2.173664847
2.173635763
2.173576302
2.173482037
2.173346669
2.173161707
2.172916443
2.17259796
2.172191232
2.171679374
2.171044058
2.170266136
2.169326445
2.168206794
2.166891058
2.165366351
2.163624171
2.161661472
2.159481555
2.157094745
2.154518807
2.151779089
2.148908407
2.145946691
2.142940386
2.139941583
2.137006852
2.134195679
2.131568506
2.129184441
2.127098793
2.125360522
2.124009831
2.123076545
2.122579672
2.122521229
2.122899022
2.123705883
2.124925282
2.12653197
2.128496231
2.130782861
2.133350177
2.136149456
2.139125306
2.142217133
2.145361545
2.148495313
2.151558439
2.154496881
2.157264662
2.15982522
2.16215203
2.164228572
2.166047756
2.167610942
2.168926631
2.170008954
2.170876038
2.17154839
2.172047382
2.172393971
2.172607727
2.172706211
2.172704788
2.172617773
2.172452272
2.172219235
2.171926097
2.171578707
2.171181171
2.170735428
2.170240623
2.169692445
2.169082649
2.168399003
2.167625881
2.166745583
2.165740454
2.164595627
2.163302036
2.161859219
2.16027747
2.158578943
2.156797488
2.154977234
2.153170091
2.151432549
2.149822167
2.148394184
2.147198536
2.146277459
2.145670286
2.145405435
2.145453559
2.145840981
2.146553968
2.147568044
2.148849881
2.15035904
2.152049741
2.153872736
2.155777287
2.157713231
2.159633042
2.161493753
2.163258602
2.164898236
2.166391393
2.167724985
2.168893677
2.169899029
2.170748288
2.171452992
2.172027562
2.172487988
2.172850698
2.173131646
2.173345663
2.173506023
2.17362423
2.173709965
2.173771157
2.173814142
2.173843864
2.173864094
2.17387765
2.173886592
2.173892397
2.173896104
2.17389843
2.173899862
2.173900722
2.173901224
2.173901503
2.173901647
2.173901712
2.173901734
2.173901758
2.173902029
2.173601381
2.173565343
2.173491664
2.173375155
2.17320837
2.172981313
2.172681444
2.172293723
2.171800765
2.171183166
2.170420021
2.169489661
2.168370579
2.167042504
2.165487579
2.163691554
2.161644919
2.159343927
2.156791441
2.153997595
2.150980279
2.147765481
2.144387514
2.140889124
2.13732144
2.133743584
2.130221821
2.126827957
2.123636921
2.120723569
2.118158897
2.116005822
2.114314904
2.11312106
2.112442031
2.112278148
2.112608177
2.113426597
2.11470806
2.116418844
2.118530678
2.121014591
2.123837755
2.126960028
2.130331565
2.133892351
2.137573846
2.141302354
2.145003329
2.148605724
2.152045706
2.155269399
2.158234547
2.160911221
2.163281682
2.165339601
2.167088747
2.168541301
2.169715904
2.170635595
2.171325804
2.171812548
2.172120975
2.172274317
2.172293259
2.172198632
2.171999614
2.171711713
2.171345242
2.170907598
2.170402933
2.16983142
2.169188366
2.168463453
2.167640444
2.166697691
2.165609673
2.164349577
2.162892936
2.161221885
2.159329357
2.157222546
2.154925015
2.152477048
2.149934139
2.147363859
2.144841548
2.142445476
2.140252082
2.138331804
2.136745782
2.135543516
2.134775671
2.134461556
2.134562203
2.135111864
2.136089687
2.137463012
2.139189359
2.141218096
2.143492094
2.145949531
2.148525944
2.15115653
2.153778645
2.156334325
2.15877263
2.161051563
2.163139375
2.165015093
2.166668296
2.168098279
2.169312601
2.170325286
2.171154904
2.171822726
2.172351078
2.172762003
2.173076244
2.173312568
2.173487379
2.173614588
2.173705668
2.173769839
2.173814336
2.173844706
2.173865109
2.173878602
2.173887385
2.17389301
2.173896551
2.173898741
2.173900066
2.173900847
2.173901291
2.173901529
2.173901646
2.173901695
2.173901732
2.173902008
2.173525491
2.173481442
2.173391427
2.173249469
2.173046927
2.172772258
2.172411049
2.171946115
2.171357712
2.170623945
2.169721378
2.168625865
2.167313548
2.165761976
2.163951264
2.161865212
2.159492335
2.156826754
2.153868972
2.150626574
2.147114956
2.143358141
2.139389758
2.135254096
2.131007094
2.126716874
2.122463476
2.118337295
2.114435982
2.110859919
2.107706502
2.105063022
2.102998676
2.101557788
2.100756398
2.100582982
2.100982293
2.101946544
2.103412733
2.105321567
2.107635654
2.110329419
2.113383836
2.11677841
2.120483164
2.124453053
2.128626285
2.132926701
2.137269098
2.141565748
2.145732607
2.149694346
2.153387873
2.156764386
2.159790153
2.162446272
2.164727593
2.166641007
2.168203245
2.169438387
2.170375277
2.171045078
2.171479163
2.171707486
2.171757479
2.171657361
2.171420533
2.171066729
2.170610198
2.170059655
2.169418285
2.168682595
2.167841281
2.166874568
2.165754483
2.164446494
2.162912664
2.161116177
2.159027115
2.15662853
2.153921735
2.150929917
2.147699349
2.144297937
2.14081131
2.137337082
2.133978189
2.130836237
2.128005674
2.125569307
2.12359532
2.122135519
2.121254058
2.12093542
2.121145885
2.121921431
2.123231868
2.125035997
2.127283017
2.129913632
2.132861155
2.136052848
2.139411674
2.142858541
2.146315041
2.149706517
2.152965209
2.156033121
2.158864292
2.161426167
2.163699899
2.165679784
2.167371779
2.168791327
2.169960883
2.170907402
2.171660038
2.172248192
2.172699985
2.173041195
2.1732946
2.173479697
2.173612696
2.173706717
2.173772119
2.173816892
2.173847058
2.173867062
2.173880119
2.173888505
2.173893803
2.173897091
2.173899093
2.173900283
2.173900969
2.173901349
2.173901545
2.173901638
2.173901696
2.173901982
2.173436622
2.173383571
2.173275259
2.173104926
2.172862751
2.172535657
2.172107399
2.171558703
2.170867539
2.170009592
2.16895893
2.167688874
2.166172983
2.164386101
2.162305361
2.159911098
2.157187639
2.154124
2.150714625
2.146960299
2.142869459
2.138460007
2.133761677
2.128818718
2.123692558
2.118463774
2.113232587
2.10811733
2.103250648
2.098773544
2.094827375
2.091542702
2.089025042
2.087341427
2.086511942
2.086503518
2.087211723
2.088638384
2.090604654
2.093001876
2.095751969
2.098813163
2.102174815
2.105844729
2.109832126
2.114131181
2.118710198
2.12350907
2.128444048
2.133416693
2.138323758
2.143065914
2.147554423
2.151715596
2.155493282
2.158849736
2.161765194
2.164236419
2.166274444
2.167901723
2.169148959
2.170051906
2.170648443
2.170976143
2.17107048
2.170968189
2.170689124
2.170256653
2.169689861
2.168998068
2.168181693
2.167230636
2.166123069
2.164825287
2.163293257
2.161476264
2.159322596
2.156786886
2.153838594
2.150469851
2.146701222
2.14258431
2.138200591
2.133656623
2.129076425
2.124592333
2.120335731
2.116428905
2.112978867
2.11007353
2.107780187
2.106146039
2.105247494
2.104996043
2.105397168
2.106471816
2.108179288
2.110470966
2.113290307
2.11657288
2.120246492
2.124231613
2.128442345
2.132788156
2.137176474
2.141516045
2.145720809
2.149713887
2.153431156
2.156823953
2.159860462
2.162525814
2.164820967
2.166760388
2.168369043
2.169679156
2.170727075
2.171550517
2.17218633
2.172668849
2.173028832
2.173292902
2.173483406
2.173618586
2.173712953
2.17377777
2.173821578
2.173850718
2.173869792
2.173882079
2.173889865
2.173894716
2.173897683
2.173899459
2.173900496
2.173901081
2.173901396
2.173901553
2.173901646
2.173901946
2.173334572
2.173271639
2.173143311
2.172942091
2.172657034
2.172273609
2.171773827
2.17113642
2.170337148
2.16934928
2.168144257
2.166692476
2.164964131
2.162930009
2.160562154
2.157834395
2.154722787
2.151206128
2.147266835
2.142892487
2.138078348
2.132830981
2.127172864
2.121147461
2.114823963
2.108300786
2.101706831
2.095199646
2.088960809
2.083189359
2.078092735
2.073871675
2.070697624
2.068689452
2.067898577
2.06823016
2.06963637
2.07202828
2.075082605
2.078569723
2.082309218
2.08619088
2.090178355
2.094299165
2.098618597
2.103204241
2.108094287
2.113280383
2.118706904
2.124281379
2.129889372
2.135409049
2.140723098
2.145727327
2.150336158
2.154485563
2.15813396
2.161261523
2.163868196
2.165970693
2.167598819
2.168791465
2.169592689
2.170048246
2.170202773
2.170102584
2.169776361
2.169249982
2.168547908
2.167678574
2.166636719
2.165401407
2.163935154
2.162185093
2.160086917
2.157571793
2.154575696
2.151050503
2.146975319
2.142365313
2.137276441
2.131804999
2.1260819
2.120262658
2.114514893
2.109005459
2.103889099
2.099299926
2.095346282
2.092108912
2.089641821
2.087990454
2.087211952
2.087126059
2.087818927
2.089268252
2.091424688
2.094235096
2.097641342
2.101579112
2.10597677
2.110754471
2.115823864
2.121088737
2.126446881
2.131793226
2.13702412
2.142042349
2.146762256
2.151114259
2.155048028
2.158533909
2.161562704
2.164143734
2.166301518
2.168071814
2.169497541
2.170625016
2.171500757
2.172169036
2.172670176
2.173039559
2.173307233
2.173497971
2.173631643
2.173723795
2.173786294
2.173828002
2.173855389
2.173873085
2.173884333
2.173891365
2.173895684
2.173898286
2.173899818
2.173900695
2.173901177
2.173901429
2.173901572
2.173901894
2.173219586
2.173146041
2.172996294
2.172762188
2.172431747
2.171989085
2.171414566
2.170684988
2.169773859
2.168651806
2.167287091
2.165646155
2.163694093
2.161394965
2.158711919
2.155607179
2.152042137
2.147977907
2.143376842
2.1382055
2.132439438
2.1260697
2.119110473
2.111606934
2.103641917
2.095339931
2.08686756
2.078430374
2.070267718
2.062647528
2.055860196
2.05020279
2.045948886
2.043314987
2.042444783
2.043178876
2.045635186
2.049625088
2.05460912
2.060152179
2.065876362
2.071501581
2.076872693
2.081978395
2.086930977
2.091906649
2.097072926
2.102535124
2.108316527
2.11436575
2.120577735
2.126817419
2.132940316
2.138808084
2.144299141
2.149315153
2.153784313
2.15766216
2.160930435
2.163594345
2.165678573
2.167222514
2.168275236
2.168890677
2.169123429
2.169030151
2.168650743
2.168011633
2.167142561
2.166048424
2.164713956
2.16310172
2.161152437
2.158788827
2.155923587
2.152471113
2.148361738
2.143557153
2.138063635
2.131939947
2.12529829
2.118297777
2.111131497
2.10400961
2.097141576
2.09072043
2.084911126
2.079843763
2.075611457
2.07227207
2.069852968
2.068417634
2.067883322
2.068113325
2.069204744
2.071096638
2.073733415
2.077061094
2.081024819
2.085566473
2.090622194
2.096119945
2.101977527
2.108101541
2.11438781
2.120723539
2.126991315
2.133074717
2.138864919
2.14426733
2.149207234
2.153633471
2.157519851
2.16086436
2.163686109
2.166020865
2.167916025
2.169425671
2.170606176
2.171512653
2.172196353
2.172703008
2.173071989
2.173336135
2.173522053
2.173650739
2.173738346
2.173797015
2.17383567
2.173860727
2.173876705
2.173886728
2.173892907
2.173896647
2.173898866
2.173900149
2.173900867
2.173901252
2.173901465
2.173901818
2.173092425
2.173007717
2.17283551
2.172567081
2.172189514
2.171685647
2.171034221
2.170209997
2.169183908
2.167923247
2.16639184
2.164550109
2.162354926
2.159759194
2.156711258
2.15315437
2.149026713
2.144262633
2.138795848
2.132565195
2.125523074
2.117646052
2.108946115
2.099480338
2.089356949
2.078736957
2.067831061
2.05689311
2.046213884
2.03612043
2.026979686
2.019189456
2.013147491
2.00921411
2.007720107
2.008590485
2.012076455
2.018157934
2.025958289
2.034759383
2.043893595
2.052766976
2.060922376
2.068145041
2.074504367
2.080290795
2.085875737
2.091575624
2.097580005
2.103942885
2.11060962
2.117454417
2.124314978
2.131019528
2.137405859
2.143333705
2.148692005
2.153402376
2.15741965
2.160730011
2.163347146
2.165306906
2.166661093
2.167471046
2.167801542
2.167719847
2.167279146
2.166503342
2.165426316
2.164045246
2.162328876
2.160216306
2.157620053
2.154434638
2.150550732
2.145873297
2.140341827
2.133949271
2.126754633
2.118886409
2.110535699
2.101939954
2.093360491
2.085058196
2.07727182
2.070202067
2.064002781
2.058778798
2.054588815
2.051451364
2.049376106
2.04839339
2.048235361
2.048959574
2.050550838
2.052938076
2.056062559
2.059872984
2.064322225
2.069364095
2.074949688
2.081023374
2.08751885
2.094355933
2.101438844
2.108656494
2.115885202
2.122994038
2.129852362
2.136338544
2.142348496
2.147802552
2.152649569
2.156868146
2.16046486
2.163469825
2.165930912
2.167907575
2.169465042
2.170669361
2.171583575
2.172265092
2.172764154
2.173123244
2.173377184
2.173553723
2.1736744
2.173755524
2.173809165
2.173844054
2.173866378
2.173880426
2.173889119
2.173894404
2.173897556
2.173899394
2.173900436
2.173901004
2.173901314
2.173901709
2.172954408
2.172858171
2.172662832
2.172359172
2.171933382
2.171367
2.17063698
2.169715637
2.168570509
2.16716412
2.165453563
2.163389794
2.160916597
2.157969282
2.15447341
2.150344115
2.145486878
2.139800762
2.133185073
2.125549967
2.116830344
2.107000996
2.09608974
2.084185624
2.07144018
2.058061926
2.044305726
2.030459902
2.016837905
2.003784454
1.991695475
1.981024656
1.972264947
1.965918823
1.962577391
1.962709043
1.966410394
1.974490469
1.9855973
1.998673749
2.012775323
2.026864759
2.039928185
2.051219466
2.060494857
2.068059829
2.074551587
2.080634061
2.086801511
2.09332083
2.100259634
2.107544078
2.115015967
2.122478236
2.129727501
2.136575784
2.142864109
2.148470249
2.153312146
2.157347852
2.160572491
2.163012748
2.164719562
2.165759859
2.166208011
2.166141439
2.16562783
2.164684123
2.163345687
2.161595936
2.159380004
2.156605901
2.153152769
2.148887031
2.143684986
2.137458854
2.130182716
2.121911707
2.112789534
2.103042167
2.092958216
2.082859757
2.073069641
2.063881759
2.055539225
2.048222741
2.042048628
2.037074143
2.033306799
2.030715672
2.029334364
2.028925675
2.029380364
2.030742712
2.032920251
2.035837777
2.039436014
2.043668596
2.048499135
2.053897682
2.059836214
2.066283235
2.073197806
2.080523908
2.088186098
2.096087059
2.104107849
2.112111754
2.119951689
2.127480379
2.134561777
2.141081755
2.146956124
2.152134932
2.156603158
2.160377392
2.1634998
2.166030887
2.168042159
2.169609509
2.170807812
2.171706974
2.172369392
2.172848674
2.173189353
2.173427318
2.1735907
2.173700983
2.173774182
2.173821966
2.173852644
2.173872017
2.173884047
2.173891389
2.173895789
2.173898372
2.173899849
2.173900665
2.173901106
2.173901558
2.172807401
2.172699438
2.172480606
2.172141201
2.171666449
2.171036366
2.170225631
2.169203195
2.167931656
2.166366327
2.164453933
2.162130882
2.159321173
2.15593428
2.15186365
2.146986866
2.141168838
2.134269388
2.126156055
2.1167216
2.105903736
2.093702997
2.080193803
2.065525395
2.049912227
2.03361659
2.016927505
2.000140069
1.983543641
1.967433692
1.952148464
1.938093999
1.925749845
1.915650583
1.908564279
1.905899223
1.908078432
1.917012259
1.931054806
1.948620841
1.968778912
1.989962245
2.010504089
2.028676897
2.043330119
2.054430734
2.062859353
2.069789184
2.076220254
2.08279765
2.089825056
2.097350913
2.105260513
2.113350435
2.121382026
2.12911742
2.136342736
2.142882312
2.148606599
2.153435161
2.15733544
2.160317734
2.162427076
2.163732913
2.164317538
2.164267117
2.163663561
2.162510809
2.160841072
2.158615966
2.155748207
2.152107828
2.147539165
2.14188784
2.135033746
2.126925395
2.117607946
2.107236887
2.09607387
2.084464321
2.072800839
2.061480191
2.050863088
2.041244265
2.032836616
2.025768997
2.02009443
2.015804508
2.012844427
2.011219406
2.010688417
2.011047439
2.012341815
2.014454345
2.017283935
2.020750761
2.024795151
2.029376018
2.034468692
2.040061559
2.046151118
2.052735509
2.059806762
2.067342794
2.075300331
2.083609104
2.092168474
2.100848393
2.109495133
2.117941653
2.126021239
2.133582075
2.14050008
2.146687682
2.15209805
2.156724511
2.160595202
2.163765237
2.166307958
2.168306486
2.169846438
2.171010256
2.171873284
2.172501481
2.172950486
2.17326572
2.173483173
2.173630596
2.173728845
2.173793223
2.173834706
2.173860992
2.173877373
2.173887408
2.173893448
2.173897012
2.173899065
2.173900208
2.173900826
2.173901354
2.172653754
2.172533991
2.17229149
2.171915958
2.171391387
2.170695729
2.169800411
2.168669416
2.1672579
2.165510287
2.163357821
2.160715644
2.157479754
2.153524595
2.148702496
2.142846668
2.13577954
2.12732772
2.117343313
2.105728971
2.092461403
2.077606804
2.061322706
2.043844558
2.025460333
2.006479743
1.98720428
1.967901515
1.948790106
1.930053101
1.911883986
1.89452063
1.878268139
1.863507159
1.850805442
1.841556014
1.838091815
1.847514376
1.862289497
1.883416355
1.909893151
1.938820604
1.968945234
1.99733962
2.020812576
2.038140598
2.050231805
2.058915385
2.065958329
2.07261489
2.079587895
2.087151226
2.09529415
2.103839319
2.112527319
2.121073589
2.129205482
2.136685806
2.143327211
2.148999822
2.153633097
2.157212287
2.159769988
2.161373714
2.162110657
2.162073155
2.161354779
2.159938725
2.157847028
2.155009698
2.151298195
2.146540818
2.140552892
2.133177519
2.124329984
2.114037029
2.102459423
2.089892064
2.076740221
2.063475603
2.050581482
2.03849923
2.027587472
2.018100016
2.010182619
2.003884048
1.999174929
1.995972064
1.994275643
1.993758177
1.99421123
1.995637267
1.997888182
2.000831488
2.00435708
2.008379642
2.012838083
2.01769538
2.022937479
2.028570526
2.034615979
2.04110361
2.048062528
2.055511314
2.063448512
2.071843262
2.080627558
2.089693022
2.098893146
2.108051967
2.116978458
2.125484288
2.13340166
2.140597879
2.146984358
2.152520323
2.157209812
2.161094103
2.164241947
2.166739344
2.16868015
2.170158334
2.171262265
2.17207103
2.172652532
2.173063014
2.173347593
2.173541417
2.173671145
2.17375649
2.173811689
2.173846794
2.173868747
2.173882244
2.173890399
2.173895234
2.173898036
2.173899607
2.173900454
2.173901081
2.172496176
2.172364572
2.172098203
2.171685903
2.17110987
2.170344998
2.169357854
2.168104975
2.166530461
2.164562855
2.162111394
2.159062022
2.155273966
2.150578292
2.144780421
2.137668892
2.129032187
2.11868379
2.106492801
2.092413995
2.076508908
2.05895021
2.040005941
2.020006628
1.999303857
1.978230367
1.957068252
1.936025566
1.915222303
1.89470318
1.874486248
1.854586716
1.835003948
1.815881952
1.797435555
1.780122223
1.775319924
1.777052996
1.786296031
1.805927391
1.839095821
1.872489591
1.912000008
1.954006318
1.990687636
2.017801981
2.035926508
2.047722669
2.056009312
2.062926421
2.069779793
2.077201366
2.085365146
2.094166225
2.103348573
2.112590762
2.121561929
2.129957979
2.137524799
2.144072376
2.149481326
2.153702097
2.156746975
2.158675639
2.159575601
2.159541478
2.158672808
2.156922657
2.154293349
2.150672504
2.145883506
2.13971569
2.131972387
2.122527267
2.111377681
2.098679695
2.084754942
2.070067522
2.055173948
2.040655867
2.027050811
2.014796807
2.00420108
1.995434406
1.988545494
1.983486803
1.980136379
1.978494997
1.978091812
1.978799582
1.980535813
1.983121474
1.986392131
1.990204791
1.994441941
1.999012918
2.003854477
2.008931834
2.014238699
2.019795466
2.025645096
2.031846308
2.038464428
2.04556055
2.053180109
2.061340277
2.070018053
2.079142014
2.088589406
2.098190852
2.107743181
2.117028604
2.125836822
2.133985855
2.1413374
2.147805979
2.153360565
2.158018587
2.16183596
2.164895418
2.167294988
2.169137902
2.170524703
2.171547748
2.17228797
2.172813517
2.173179799
2.17343049
2.173599034
2.17371038
2.173782679
2.173828828
2.17385779
2.173875662
2.1738865
2.173892953
2.17389671
2.173898829
2.17389997
2.173900725
2.172337547
2.172193969
2.171903221
2.171452738
2.170821974
2.169981217
2.168889796
2.167493354
2.165720195
2.16347681
2.160642963
2.157067211
2.152564366
2.146917176
2.139884944
2.13122156
2.12070376
2.108167177
2.093543468
2.076888351
2.058390258
2.038353945
2.017161406
1.995219966
1.97291088
1.950549365
1.928360495
1.906466798
1.884882541
1.863530675
1.84229418
1.821010135
1.799297276
1.776589571
1.751503664
1.874321048
1.905233152
1.901734644
1.89899837
1.89891025
1.867368991
1.794718005
1.837309688
1.897020668
1.951802891
1.992745385
2.01949576
2.035953123
2.046299499
2.053800207
2.060560744
2.067710157
2.075698139
2.084548568
2.094041467
2.103835151
2.113546267
2.122802137
2.131275314
2.138706161
2.144915813
2.149809627
2.153370672
2.155643526
2.156709774
2.156660981