/*--------------------------------*- C++ -*----------------------------------*\
| =========                 |                                                 |
| \\      /  F ield         | OpenFOAM: The Open Source CFD Toolbox           |
|  \\    /   O peration     | Version:  2412                                  |
|   \\  /    A nd           | Website:  www.openfoam.com                      |
|    \\/     M anipulation  |                                                 |
\*---------------------------------------------------------------------------*/
FoamFile
{
    version     2.0;
    format      ascii;
    arch        "LSB;label=32;scalar=64";
    class       surfaceVectorField;
    location    "0.05";
    object      rhoUf;
}
// * * * * * * * * * * * * * * * * * * * * * * * * * * * * * * * * * * * * * //

dimensions      [1 -2 -1 0 0 0 0];

internalField   nonuniform List<vector> 
23538
(
(2.770924987e-06 -7.414588246e-05 0)
(-2.240436508e-05 -0.0001257755964 0)
(0.0001211127069 -0.0001001594216 0)
(8.159526675e-05 -0.000241206578 0)
(0.0002821646465 -0.0001067012552 0)
(0.0002844390488 -0.0002836368293 0)
(0.0004530254782 -0.0001074074159 0)
(0.0005167943966 -0.0002929718479 0)
(0.0006189705474 -0.0001059318301 0)
(0.0007467913972 -0.0002874072365 0)
(0.0007720636949 -0.0001033736829 0)
(0.0009597945975 -0.0002737031595 0)
(0.0009065113156 -0.000100026145 0)
(0.001144694224 -0.0002539623873 0)
(0.001017232391 -9.593442609e-05 0)
(0.001291908676 -0.0002288567761 0)
(0.001099727248 -9.112486899e-05 0)
(0.001392878579 -0.0001989284513 0)
(0.001150158158 -8.562518287e-05 0)
(0.001440272555 -0.0001647997169 0)
(0.00116531969 -7.944279205e-05 0)
(0.001428072827 -0.0001270652604 0)
(0.001142516123 -7.25563331e-05 0)
(0.001351479547 -8.619629835e-05 0)
(0.001079452424 -6.492896982e-05 0)
(0.001206724518 -4.256753363e-05 0)
(0.0009742024766 -5.652986247e-05 0)
(0.0009909493687 3.474486563e-06 0)
(0.0008252794852 -4.735139916e-05 0)
(0.0007022670905 5.149755386e-05 0)
(0.0006318272012 -3.740652154e-05 0)
(0.0003399677051 0.0001008634452 0)
(0.0003937353099 -2.674957348e-05 0)
(-9.526930554e-05 0.0001508065952 0)
(0.0001119033182 -1.550145529e-05 0)
(-0.0006006620459 0.0002002793035 0)
(-0.0002115760202 -3.820546846e-06 0)
(-0.001171638403 0.0002480352713 0)
(-0.0005733273112 8.109215387e-06 0)
(-0.001801278644 0.0002927267814 0)
(-0.0009686349848 2.008357469e-05 0)
(-0.002480365229 0.0003329371528 0)
(-0.001391533653 3.190570655e-05 0)
(-0.003197373481 0.00036733037 0)
(-0.001834979919 4.33840729e-05 0)
(-0.003938956892 0.0003947398221 0)
(-0.002291063278 5.433303159e-05 0)
(-0.004690249498 0.000414208948 0)
(-0.002751326369 6.459245712e-05 0)
(-0.00543550949 0.0004251000871 0)
(-0.003207134497 7.403408806e-05 0)
(-0.006158813067 0.0004271527049 0)
(-0.003650064087 8.25579488e-05 0)
(-0.006844794829 0.0004204987911 0)
(-0.004072263438 9.008196804e-05 0)
(-0.007479363009 0.0004056347488 0)
(-0.004466740265 9.652564508e-05 0)
(-0.008050310661 0.0003833523011 0)
(-0.004827560208 0.0001017910657 0)
(-0.008547758795 0.0003546384145 0)
(-0.005149929532 0.0001057489426 0)
(-0.008964398275 0.0003205727362 0)
(-0.005430207692 0.0001082214945 0)
(-0.009295575983 0.0002822415809 0)
(-0.00566571391 0.0001089925649 0)
(-0.009539102158 0.0002406129879 0)
(-0.005854826237 0.000107831676 0)
(-0.009695101208 0.0001965221392 0)
(-0.005996433596 0.0001045174111 0)
(-0.009765551488 0.0001505873648 0)
(-0.006089970219 9.886432374e-05 0)
(-0.009753664987 0.0001032619487 0)
(-0.006135259396 9.074483937e-05 0)
(-0.009663687911 5.487783791e-05 0)
(-0.006132422839 8.011385688e-05 0)
(-0.009500466908 5.688190526e-06 0)
(-0.006081843939 6.703451639e-05 0)
(-0.009268975117 -4.406969709e-05 0)
(-0.00598422975 5.171463022e-05 0)
(-0.008974269854 -9.408540396e-05 0)
(-0.005840794071 3.452183628e-05 0)
(-0.008621499722 -0.0001438389266 0)
(-0.005653470415 1.599217957e-05 0)
(-0.008216072474 -0.0001925628166 0)
(-0.005425177015 -3.192046405e-06 0)
(-0.00776391521 -0.000239211169 0)
(-0.005159988428 -2.22892194e-05 0)
(-0.007271658053 -0.0002825437148 0)
(-0.004863068622 -4.058776859e-05 0)
(-0.006746687793 -0.0003213492391 0)
(-0.004540478591 -5.746918234e-05 0)
(-0.006197038699 -0.0003545952132 0)
(-0.004198880808 -7.245115425e-05 0)
(-0.005631162124 -0.0003815213917 0)
(-0.003845219228 -8.520912013e-05 0)
(-0.005057638578 -0.0004016894478 0)
(-0.003486382719 -9.55773907e-05 0)
(-0.0044848779 -0.0004149878606 0)
(-0.003128924224 -0.0001035305214 0)
(-0.003920844521 -0.0004215978516 0)
(-0.002778846969 -0.0001091552731 0)
(-0.003372857633 -0.0004219224274 0)
(-0.002441458931 -0.0001126235222 0)
(-0.002847447495 -0.0004165297971 0)
(-0.00212129003 -0.0001141641092 0)
(-0.002350273107 -0.0004060962342 0)
(-0.001822053427 -0.0001140341824 0)
(-0.001886071381 -0.0003913573143 0)
(-0.001546661084 -0.00011249794 0)
(-0.001458665624 -0.0003730559113 0)
(-0.001297284207 -0.0001098117015 0)
(-0.001070975413 -0.0003519072407 0)
(-0.001075419771 -0.0001062155952 0)
(-0.0007251274715 -0.0003285776189 0)
(-0.0008819792127 -0.0001019309026 0)
(-0.000422485479 -0.0003036641254 0)
(-0.0007173806278 -9.715366987e-05 0)
(-0.0001638018603 -0.0002776941672 0)
(-0.0005816472754 -9.204962932e-05 0)
(5.068889791e-05 -0.0002511022045 0)
(-0.000474516312 -8.675695987e-05 0)
(0.0002211445732 -0.0002242305261 0)
(-0.000395518109 -8.138637982e-05 0)
(0.0003480096719 -0.0001973385813 0)
(-0.0003440575117 -7.603141416e-05 0)
(0.0004318551795 -0.0001706103794 0)
(-0.0003194576256 -7.077770346e-05 0)
(0.0004733436427 -0.0001441896725 0)
(-0.0003209872788 -6.568659213e-05 0)
(0.0004731626362 -0.0001181832934 0)
(-0.0003479279763 -6.079873204e-05 0)
(0.0004318773498 -9.263215878e-05 0)
(-0.0003995817029 -5.614864778e-05 0)
(0.0003500229836 -6.756083506e-05 0)
(-0.0004752811782 -5.176446785e-05 0)
(0.0002280282412 -4.29833117e-05 0)
(-0.000574383367 -4.766733854e-05 0)
(6.622901099e-05 -1.891374959e-05 0)
(-0.0006962618739 -4.387143332e-05 0)
(-0.0001351243421 4.63534764e-06 0)
(-0.0008402698017 -4.038892363e-05 0)
(-0.0003757426265 2.761836345e-05 0)
(-0.001005683492 -3.722358764e-05 0)
(-0.0006552602254 4.99429559e-05 0)
(-0.001191664415 -3.436298417e-05 0)
(-0.0009731321148 7.1492516e-05 0)
(-0.001397214409 -3.178258917e-05 0)
(-0.00132847432 9.211918238e-05 0)
(-0.001621157364 -2.944521898e-05 0)
(-0.001719984419 0.0001116700572 0)
(-0.001862124268 -2.730737141e-05 0)
(-0.002145854781 0.0001299937784 0)
(-0.002118482143 -2.534711328e-05 0)
(-0.002603728792 0.000146879998 0)
(-0.002388148296 -2.358511251e-05 0)
(-0.00309049839 0.0001619376331 0)
(-0.002668361193 -2.207448616e-05 0)
(-0.003601910452 0.0001745538471 0)
(-0.002955548589 -2.088712989e-05 0)
(-0.004132231648 0.0001839707875 0)
(-0.003245265868 -2.011501533e-05 0)
(-0.004674122818 0.0001893595797 0)
(-0.003532205988 -1.986670469e-05 0)
(-0.005218634901 0.0001898697613 0)
(-0.003810275132 -2.026186468e-05 0)
(-0.005755318427 0.0001847026125 0)
(-0.004072718371 -2.143046145e-05 0)
(-0.006272444048 0.0001731460113 0)
(-0.004312270097 -2.350869139e-05 0)
(-0.006757286822 0.0001546055613 0)
(-0.004521330777 -2.663158708e-05 0)
(-0.007196454254 0.0001286335846 0)
(-0.004692180396 -3.092073548e-05 0)
(-0.007576264982 9.497064162e-05 0)
(-0.004817230267 -3.646858746e-05 0)
(-0.007883187693 5.359717032e-05 0)
(-0.004889327884 -4.331985246e-05 0)
(-0.008104348005 4.793894889e-06 0)
(-0.004902116477 -5.145196137e-05 0)
(-0.008228113737 -5.079512224e-05 0)
(-0.004850442145 -6.076067362e-05 0)
(-0.008244749093 -0.0001121001769 0)
(-0.004730786943 -7.096585656e-05 0)
(-0.008147016522 -0.0001775894904 0)
(-0.004542092991 -8.157949887e-05 0)
(-0.007931428493 -0.0002449385435 0)
(-0.004286136563 -9.209754952e-05 0)
(-0.007598597212 -0.0003112847064 0)
(-0.00396738861 -0.000102115499 0)
(-0.00715384055 -0.0003739878723 0)
(-0.003592583069 -0.0001112670569 0)
(-0.006607065328 -0.0004307823894 0)
(-0.003170294733 -0.0001192281378 0)
(-0.005971396183 -0.0004797898831 0)
(-0.00271039827 -0.0001257550928 0)
(-0.005262565741 -0.000519648546 0)
(-0.002223565019 -0.0001306750345 0)
(-0.004497996801 -0.0005494875016 0)
(-0.001720768938 -0.0001338868273 0)
(-0.003695968479 -0.0005689049684 0)
(-0.001212829816 -0.0001353620882 0)
(-0.002874819358 -0.0005779492313 0)
(-0.0007099986709 -0.0001351414871 0)
(-0.002052210009 -0.0005770775769 0)
(-0.0002215994661 -0.0001333290432 0)
(-0.001244473465 -0.0005670990169 0)
(0.0002442450888 -0.0001300817378 0)
(-0.000466087805 -0.0005491022266 0)
(0.0006807962501 -0.0001255958978 0)
(0.0002707027093 -0.0005243643021 0)
(0.00108278743 -0.0001200937525 0)
(0.000956098815 -0.0004942579972 0)
(0.001446421262 -0.0001138108538 0)
(0.001582795028 -0.0004601671493 0)
(0.001769294386 -0.0001070020762 0)
(0.002145861679 -0.0004234175738 0)
(0.002050351646 -9.9924843e-05 0)
(0.002642656812 -0.0003852997375 0)
(0.002289703312 -9.274351899e-05 0)
(0.003072536516 -0.000346944695 0)
(0.002488120749 -8.554699247e-05 0)
(0.003436293492 -0.0003089912118 0)
(0.002646891161 -7.846118879e-05 0)
(0.003735898856 -0.0002719509818 0)
(0.002767860655 -7.163055199e-05 0)
(0.003974056679 -0.0002363909506 0)
(0.002853292784 -6.516954917e-05 0)
(0.004154193954 -0.0002027457834 0)
(0.002905734792 -5.916262888e-05 0)
(0.004280217366 -0.000171328532 0)
(0.002927911437 -5.366826041e-05 0)
(0.004356324455 -0.000142346945 0)
(0.002922627664 -4.872209367e-05 0)
(0.00438685639 -0.0001159191671 0)
(0.00289269331 -4.433780739e-05 0)
(0.004376180116 -9.208459084e-05 0)
(0.00284085444 -4.051028266e-05 0)
(0.00432858834 -7.081378577e-05 0)
(0.002769740598 -3.722255087e-05 0)
(0.004248216556 -5.202363136e-05 0)
(0.002681834038 -3.444707636e-05 0)
(0.004138997793 -3.559612856e-05 0)
(0.002579432741 -3.214327988e-05 0)
(0.004004565069 -2.137235732e-05 0)
(0.002464620729 -3.026347867e-05 0)
(0.00384826437 -9.157100099e-06 0)
(0.002339257772 -2.875804209e-05 0)
(0.003673118853 1.251000994e-06 0)
(0.002204985165 -2.757597823e-05 0)
(0.003481814731 1.006178056e-05 0)
(0.002063222954 -2.666787743e-05 0)
(0.003276705761 1.74815177e-05 0)
(0.001915197486 -2.598941309e-05 0)
(0.00305983518 2.369791786e-05 0)
(0.001761981175 -2.550502205e-05 0)
(0.002832989294 2.885572128e-05 0)
(0.001604563327 -2.519421503e-05 0)
(0.00259778838 3.303567032e-05 0)
(0.001443941597 -2.505667429e-05 0)
(0.002355816714 3.622585405e-05 0)
(0.001281219094 -2.511225255e-05 0)
(0.002108774564 3.831781187e-05 0)
(0.001117684044 -2.539877895e-05 0)
(0.001858615721 3.912375531e-05 0)
(0.000954840542 -2.59654645e-05 0)
(0.001607624442 3.842802813e-05 0)
(0.0007943602719 -2.686942237e-05 0)
(0.001358371321 3.606258163e-05 0)
(0.0006379821843 -2.81915146e-05 0)
(0.001113520888 3.19591624e-05 0)
(0.0004874881025 -3.009103894e-05 0)
(0.0008755830134 2.607381942e-05 0)
(0.0003450180208 -3.282670731e-05 0)
(0.0006469253257 1.804864984e-05 0)
(0.0002139120347 -3.653637452e-05 0)
(0.0004302891059 6.684657058e-06 0)
(0.0001001581202 -3.380398354e-05 0)
(0.0002332564096 -1.06688068e-05 0)
(6.330277014e-05 -2.426409533e-05 0)
(3.756852897e-05 -0.000299815252 0)
(-2.209414302e-05 -0.0002862340867 0)
(0.0002437449992 -0.0004357179169 0)
(0.0001292011788 -0.0005700926206 0)
(0.0005195891784 -0.0004823214113 0)
(0.0003949253523 -0.0006819136845 0)
(0.0008106327944 -0.0004855880182 0)
(0.0006967397647 -0.0007059792835 0)
(0.001087816094 -0.0004671918386 0)
(0.0009913818521 -0.0006858841111 0)
(0.001332670923 -0.0004351088065 0)
(0.001255907864 -0.0006389589874 0)
(0.001530397804 -0.0003919318704 0)
(0.001471534182 -0.0005709522358 0)
(0.001667926697 -0.0003388977279 0)
(0.00162162335 -0.0004842242791 0)
(0.001733856821 -0.0002771990243 0)
(0.001691370843 -0.0003809512646 0)
(0.001718684649 -0.0002080760405 0)
(0.001668253147 -0.0002636099358 0)
(0.001614804711 -0.0001326398525 0)
(0.001542306554 -0.0001346603802 0)
(0.001416346701 -5.180852539e-05 0)
(0.001306009383 3.722811807e-06 0)
(0.001118986187 3.361395367e-05 0)
(0.000954031791 0.0001496463874 0)
(0.0007199138617 0.0001227886456 0)
(0.0004831044297 0.0003012566308 0)
(0.000217960501 0.0002146229497 0)
(-0.000107894031 0.0004564885644 0)
(-0.0003859519535 0.0003076339736 0)
(-0.0008172080203 0.0006125994803 0)
(-0.001088304976 0.0003999236083 0)
(-0.001640577752 0.0007661997772 0)
(-0.001882712802 0.000489249542 0)
(-0.002569932248 0.0009133349589 0)
(-0.002759716938 0.0005731054405 0)
(-0.003593713121 0.001049631245 0)
(-0.003706539542 0.0006488081875 0)
(-0.004696319329 0.001170352545 0)
(-0.0047071831 0.00071371161 0)
(-0.005858293271 0.001270791629 0)
(-0.005742763488 0.0007654106903 0)
(-0.007056709335 0.001346645553 0)
(-0.006792081593 0.0008018975116 0)
(-0.008265870596 0.001394348055 0)
(-0.007832446462 0.000821722482 0)
(-0.009458282547 0.001411367962 0)
(-0.008840650209 0.0008241356988 0)
(-0.01060586761 0.001396475194 0)
(-0.009794036705 0.0008091550975 0)
(-0.01168129447 0.001349886991 0)
(-0.01067157565 0.000777558286 0)
(-0.01265932355 0.001273289955 0)
(-0.0114548266 0.0007307899666 0)
(-0.01351804695 0.001169713527 0)
(-0.012128707 0.000670802105 0)
(-0.0142398765 0.001043243246 0)
(-0.01268198494 0.000599859258 0)
(-0.01481218856 0.0008986671269 0)
(-0.01310750333 0.0005203532083 0)
(-0.01522757879 0.0007410839239 0)
(-0.01340215837 0.0004346054805 0)
(-0.01548384092 0.0005755789149 0)
(-0.01356645209 0.000344707957 0)
(-0.0155834929 0.0004067843462 0)
(-0.0136043054 0.0002524049075 0)
(-0.01553325171 0.0002386479285 0)
(-0.01352189807 0.0001590255566 0)
(-0.0153430058 7.426331976e-05 0)
(-0.01332727046 6.553678164e-05 0)
(-0.01502472574 -8.418255742e-05 0)
(-0.01302963003 -2.739457824e-05 0)
(-0.01459173796 -0.000235245398 0)
(-0.01263863862 -0.0001192794168 0)
(-0.01405793863 -0.0003782706888 0)
(-0.01216392267 -0.0002096170489 0)
(-0.01343693984 -0.0005131021031 0)
(-0.01161492088 -0.0002977295612 0)
(-0.01274154426 -0.0006396511368 0)
(-0.01100090449 -0.0003826147778 0)
(-0.0119836023 -0.0007575846641 0)
(-0.01033121397 -0.00046288714 0)
(-0.01117418381 -0.0008660760059 0)
(-0.009615438783 -0.0005368587618 0)
(-0.01032398493 -0.0009637914499 0)
(-0.008863496252 -0.0006027509281 0)
(-0.009443439327 -0.001049098629 0)
(-0.008085644567 -0.00065894971 0)
(-0.008542880215 -0.001120353476 0)
(-0.007292341392 -0.0007042055727 0)
(-0.007632500483 -0.001176203099 0)
(-0.006494000669 -0.0007377493874 0)
(-0.006722212293 -0.001215787183 0)
(-0.005700729766 -0.000759330561 0)
(-0.005821489559 -0.001238814786 0)
(-0.004922070872 -0.0007691891123 0)
(-0.004939225821 -0.001245568915 0)
(-0.004166802455 -0.0007679649937 0)
(-0.004083627784 -0.001236830416 0)
(-0.003442810408 -0.0007565910522 0)
(-0.003262179581 -0.001213736627 0)
(-0.002757002071 -0.0007362012166 0)
(-0.002481600181 -0.001177689356 0)
(-0.002115263388 -0.0007080454025 0)
(-0.00174785754 -0.00113026355 0)
(-0.001522450565 -0.0006734108504 0)
(-0.001066077816 -0.00107312277 0)
(-0.0009823928231 -0.0006335483236 0)
(-0.0004406228466 -0.001007967358 0)
(-0.000497953484 -0.0005896333257 0)
(0.0001249464909 -0.0009364296441 0)
(-7.112220196e-05 -0.0005427437678 0)
(0.0006279790947 -0.000860025868 0)
(0.0002968947793 -0.0004938299526 0)
(0.001066633635 -0.0007801405099 0)
(0.000605545727 -0.0004436939786 0)
(0.001439721515 -0.000697975701 0)
(0.0008547929274 -0.0003929819805 0)
(0.001746644584 -0.0006145177896 0)
(0.001044976036 -0.0003421850343 0)
(0.001987248011 -0.0005305335369 0)
(0.001176658883 -0.0002916504744 0)
(0.002161684345 -0.0004465626104 0)
(0.001250489156 -0.0002416199668 0)
(0.00227019746 -0.0003629375951 0)
(0.001267111445 -0.0001922592259 0)
(0.002313084169 -0.0002798545988 0)
(0.001227076364 -0.0001436490298 0)
(0.002290508261 -0.0001973883588 0)
(0.001130780434 -9.581363613e-05 0)
(0.002202373572 -0.0001154898115 0)
(0.0009784821115 -4.875762909e-05 0)
(0.002048408853 -3.408914268e-05 0)
(0.0007702753491 -2.474825963e-06 0)
(0.001828081977 4.691478092e-05 0)
(0.0005061176203 4.302771407e-05 0)
(0.001540624082 0.0001276027149 0)
(0.0001859200083 8.769199682e-05 0)
(0.001185080395 0.0002079732098 0)
(-0.0001903271649 0.0001313765514 0)
(0.0007604979998 0.000287883009 0)
(-0.000622409067 0.0001738622047 0)
(0.0002660699407 0.0003669999485 0)
(-0.001109735888 0.0002148701409 0)
(-0.0002987729622 0.0004448408504 0)
(-0.001651120433 0.0002540809053 0)
(-0.0009336651984 0.0005206791008 0)
(-0.002244616393 0.0002911370811 0)
(-0.001637364801 0.0005936410715 0)
(-0.002887433837 0.0003255962595 0)
(-0.002407501933 0.0006627834045 0)
(-0.003575765546 0.0003567948606 0)
(-0.003240434111 0.0007269462292 0)
(-0.004304338407 0.0003837023353 0)
(-0.004130881567 0.0007843426993 0)
(-0.005065915731 0.0004049429767 0)
(-0.005071217854 0.0008324659883 0)
(-0.005851003603 0.0004189365621 0)
(-0.006050920959 0.0008683605927 0)
(-0.006647767542 0.0004240289712 0)
(-0.007056450779 0.0008888863237 0)
(-0.007442114728 0.0004186161259 0)
(-0.008071319293 0.0008909434331 0)
(-0.008217964449 0.0004012509225 0)
(-0.00907634387 0.0008717049589 0)
(-0.008957619507 0.0003707126411 0)
(-0.0100500959 0.000828773966 0)
(-0.009642231718 0.0003260658309 0)
(-0.01096945262 0.0007602896669 0)
(-0.01025232621 0.0002667264103 0)
(-0.01181023208 0.0006650412483 0)
(-0.01076840947 0.0001925441854 0)
(-0.01254791805 0.0005425865551 0)
(-0.01117165833 0.0001039032679 0)
(-0.0131584795 0.0003934047755 0)
(-0.0114447073 1.831774005e-06 0)
(-0.01361929361 0.0002190605282 0)
(-0.01157252058 -0.0001118871482 0)
(-0.01391017487 2.237355679e-05 0)
(-0.01154337313 -0.0002346117222 0)
(-0.01401449056 -0.0001924236864 0)
(-0.01134987786 -0.0003626418693 0)
(-0.01392013195 -0.0004195414197 0)
(-0.01099004762 -0.0004911497557 0)
(-0.01362164695 -0.0006514349391 0)
(-0.01046821974 -0.0006148913904 0)
(-0.0131200298 -0.0008788401867 0)
(-0.009795258642 -0.000729134049 0)
(-0.0124248269 -0.001092645073 0)
(-0.008987343381 -0.000829956996 0)
(-0.01155305747 -0.001285256738 0)
(-0.008064805853 -0.0009143314624 0)
(-0.01052716995 -0.001450608422 0)
(-0.007050931728 -0.0009801848744 0)
(-0.009373977071 -0.001584319737 0)
(-0.005970763668 -0.001026370807 0)
(-0.00812312714 -0.001683673542 0)
(-0.004849961723 -0.001052625054 0)
(-0.006805719651 -0.00174755766 0)
(-0.003713719253 -0.001059500948 0)
(-0.00545296288 -0.001776370171 0)
(-0.002585796699 -0.001048273799 0)
(-0.004094912439 -0.00177188419 0)
(-0.001487697673 -0.001020811499 0)
(-0.002759350904 -0.001737045411 0)
(-0.0004380347575 -0.0009794157653 0)
(-0.00147086628 -0.001675709236 0)
(0.000547875807 -0.0009266466848 0)
(-0.000250185494 -0.001592333164 0)
(0.001458186893 -0.0008651499357 0)
(0.0008862005296 -0.001491654232 0)
(0.002284475729 -0.0007975099489 0)
(0.001926112002 -0.001378380284 0)
(0.003021511218 -0.0007262125005 0)
(0.002861415178 -0.001256948868 0)
(0.00366704233 -0.000653502025 0)
(0.003688092014 -0.001131566367 0)
(0.004221327476 -0.0005810290054 0)
(0.004404755514 -0.00100582381 0)
(0.004686243531 -0.0005099529216 0)
(0.005013393833 -0.0008819556461 0)
(0.005065101696 -0.0004413045386 0)
(0.005517695259 -0.0007618899096 0)
(0.00536226301 -0.0003759670681 0)
(0.005922547512 -0.0006472535413 0)
(0.00558280993 -0.0003145965114 0)
(0.00623392218 -0.0005392199669 0)
(0.005732303154 -0.0002576482431 0)
(0.006458406141 -0.0004386051923 0)
(0.005816566011 -0.0002054005197 0)
(0.006602924558 -0.0003459179725 0)
(0.005841510317 -0.0001579782649 0)
(0.006674526407 -0.0002614007532 0)
(0.005812990585 -0.0001153764105 0)
(0.006680209129 -0.0001850778274 0)
(0.005736694275 -7.74833859e-05 0)
(0.006626778827 -0.000116792304 0)
(0.005618056053 -4.410130821e-05 0)
(0.00652075949 -5.624512455e-05 0)
(0.005462163849 -1.495895348e-05 0)
(0.006368286137 -3.00468413e-06 0)
(0.005273706871 1.027034759e-05 0)
(0.006175021282 4.345745276e-05 0)
(0.005056965537 3.194651023e-05 0)
(0.005946167794 8.371629736e-05 0)
(0.004815787329 5.044915401e-05 0)
(0.005686419272 0.000118388659 0)
(0.004553573681 6.616168661e-05 0)
(0.005399944734 0.0001481129163 0)
(0.004273298277 7.944466268e-05 0)
(0.005090402052 0.0001735094392 0)
(0.003977562912 9.059952711e-05 0)
(0.004760982116 0.0001951265409 0)
(0.003668700648 9.982423909e-05 0)
(0.00441449718 0.000213373426 0)
(0.003348920779 0.0001071701135 0)
(0.004053531377 0.0002284422031 0)
(0.003020507725 0.0001125138684 0)
(0.003680644193 0.0002402494375 0)
(0.002686006294 0.0001155705889 0)
(0.003298599263 0.000248417698 0)
(0.002348363295 0.0001159645256 0)
(0.002910563018 0.0002523579082 0)
(0.002010926743 0.0001133547363 0)
(0.002520193243 0.0002514506655 0)
(0.001677256942 0.0001075675667 0)
(0.002131524099 0.0002453146974 0)
(0.001350783726 9.859821638e-05 0)
(0.001748617408 0.0002340118774 0)
(0.001034558419 8.625913863e-05 0)
(0.001375115567 0.0002178790249 0)
(0.0007316880783 6.935280657e-05 0)
(0.001014219683 0.0001964986169 0)
(0.0004474298848 4.468979461e-05 0)
(0.0006692635256 0.0001665235491 0)
(0.0001938108553 1.325296292e-05 0)
(0.0003521623028 0.0001185325142 0)
(8.579357999e-05 4.512489531e-05 0)
(5.32881649e-05 -0.0005585736997 0)
(-1.931888045e-05 -0.0004622320484 0)
(0.0002787139945 -0.0008175899872 0)
(0.0001410987138 -0.0009180316108 0)
(0.0005725236139 -0.0009068148411 0)
(0.0004098569701 -0.001097902134 0)
(0.0008774147726 -0.0009075674455 0)
(0.000709989141 -0.001132532648 0)
(0.001159586225 -0.0008589842743 0)
(0.0009960050971 -0.001088994183 0)
(0.001394956471 -0.0007761567486 0)
(0.001241537473 -0.0009943094188 0)
(0.001563014988 -0.0006645978896 0)
(0.001423541699 -0.0008577718478 0)
(0.001645386489 -0.0005276065907 0)
(0.001521090879 -0.0006838419943 0)
(0.001626149317 -0.0003686457652 0)
(0.001515550993 -0.0004771187631 0)
(0.001492323489 -0.0001914209292 0)
(0.001391386554 -0.0002429875019 0)
(0.001234033846 5.404662489e-07 0)
(0.001136721137 1.301903254e-05 0)
(0.0008443032827 0.0002041039356 0)
(0.00074314831 0.0002858493428 0)
(0.0003188338196 0.0004163604148 0)
(0.0002055389193 0.0005709433159 0)
(-0.0003438829442 0.0006342041979 0)
(-0.000477867391 0.00086366554 0)
(-0.001142124769 0.000853838968 0)
(-0.001305282767 0.001158706422 0)
(-0.002070767677 0.001070663095 0)
(-0.002271125663 0.001449899213 0)
(-0.003120966179 0.001279314518 0)
(-0.003365905416 0.00173009717 0)
(-0.004279571075 0.001473669983 0)
(-0.004575379524 0.001990992247 0)
(-0.005528813957 0.001647089056 0)
(-0.005880399175 0.002223531689 0)
(-0.006846418289 0.001792809268 0)
(-0.007256909191 0.002418408846 0)
(-0.008206011878 0.001904464728 0)
(-0.008676380161 0.002566741509 0)
(-0.00957785959 0.001976596196 0)
(-0.01010660366 0.002660797461 0)
(-0.01092996286 0.00200511641 0)
(-0.01151288078 0.002694676175 0)
(-0.01222944146 0.001987712165 0)
(-0.01285954191 0.002664898158 0)
(-0.01344409447 0.001924118978 0)
(-0.0141117005 0.002570859509 0)
(-0.01454400999 0.001816223491 0)
(-0.01523706651 0.002415005663 0)
(-0.01550307664 0.001667965648 0)
(-0.01620766171 0.00220278757 0)
(-0.01630024949 0.001485016844 0)
(-0.01700128255 0.001942257197 0)
(-0.01692041012 0.001274297427 0)
(-0.01760248638 0.001643400623 0)
(-0.01735478934 0.00104342568 0)
(-0.0180030269 0.001317320898 0)
(-0.01760094799 0.0008001951289 0)
(-0.018201716 0.0009754239053 0)
(-0.01766242585 0.0005520039045 0)
(-0.01820399865 0.0006287474197 0)
(-0.01754781883 0.0003053076628 0)
(-0.01802096035 0.0002870898105 0)
(-0.01727005132 6.533379808e-05 0)
(-0.01766818957 -4.160754283e-05 0)
(-0.01684465105 -0.0001640619663 0)
(-0.01716406926 -0.0003513604392 0)
(-0.01628887855 -0.000380257831 0)
(-0.01652881285 -0.0006383626243 0)
(-0.01562070392 -0.0005817477853 0)
(-0.01578257077 -0.0009005245705 0)
(-0.01485792149 -0.0007681209391 0)
(-0.01494498994 -0.001137438933 0)
(-0.01401726822 -0.0009396241294 0)
(-0.01403439939 -0.0013500918 0)
(-0.01311389928 -0.00109655068 0)
(-0.01306707492 -0.001540066676 0)
(-0.01216141423 -0.001238767589 0)
(-0.01205718855 -0.001708677448 0)
(-0.01117216268 -0.001365502333 0)
(-0.01101718163 -0.001856425654 0)
(-0.01015760223 -0.001475433531 0)
(-0.009958238314 -0.001982910437 0)
(-0.009128557216 -0.001566992621 0)
(-0.008890629581 -0.002087146682 0)
(-0.008095297588 -0.001638733733 0)
(-0.007823833134 -0.002168002405 0)
(-0.00706750988 -0.001689643305 0)
(-0.006766497004 -0.00222462607 0)
(-0.00605422267 -0.001719304214 0)
(-0.005726380168 -0.002256689717 0)
(-0.005063767234 -0.00172794233 0)
(-0.004710352733 -0.002264443379 0)
(-0.004103774207 -0.001716384681 0)
(-0.003724501889 -0.002248692674 0)
(-0.003181205339 -0.0016859254 0)
(-0.002774316555 -0.002210691431 0)
(-0.0023024241 -0.001638187563 0)
(-0.001864947395 -0.002151987865 0)
(-0.001473242803 -0.001575040473 0)
(-0.001001314845 -0.002074353848 0)
(-0.0006988808179 -0.001498490144 0)
(-0.0001883011702 -0.001979795182 0)
(1.601076514e-05 -0.001410599965 0)
(0.0005692304006 -0.001870403762 0)
(0.0006673487349 -0.001313466289 0)
(0.001266868446 -0.001748333108 0)
(0.001251813032 -0.001209120286 0)
(0.001900383456 -0.001615902122 0)
(0.001766884303 -0.001099418987 0)
(0.002466187484 -0.001475368961 0)
(0.002210740158 -0.0009859995578 0)
(0.00296132908 -0.001328797103 0)
(0.002582172271 -0.000870245839 0)
(0.00338349163 -0.001178002879 0)
(0.00288048177 -0.0007532611051 0)
(0.003730987422 -0.001024503686 0)
(0.00310532368 -0.0006358567318 0)
(0.004002625811 -0.0008694687818 0)
(0.0032565577 -0.0005185602955 0)
(0.004197559513 -0.0007136936867 0)
(0.00333408124 -0.0004016619481 0)
(0.004315044752 -0.000557613265 0)
(0.003337671291 -0.0002852671549 0)
(0.004354367442 -0.0004013739179 0)
(0.003266890478 -0.0001693254729 0)
(0.004314543344 -0.0002448935206 0)
(0.003120982057 -5.369569133e-05 0)
(0.004194230442 -8.789700211e-05 0)
(0.002898877908 6.17988375e-05 0)
(0.003991703622 6.995245085e-05 0)
(0.002599179428 0.0001773301849 0)
(0.003704798285 0.0002290307534 0)
(0.002220219734 0.0002929884553 0)
(0.003330926625 0.0003896348277 0)
(0.001760181506 0.0004087032569 0)
(0.002867196107 0.0005518810528 0)
(0.001217268843 0.0005241651805 0)
(0.002310598653 0.0007155835549 0)
(0.0005899543572 0.0006387636042 0)
(0.001658310885 0.0008801436247 0)
(-0.0001225463339 0.0007514891119 0)
(0.0009079207839 0.00104435205 0)
(-0.0009198372487 0.0008610468366 0)
(5.822452449e-05 0.001206342501 0)
(-0.001800242781 0.0009660656866 0)
(-0.0008907050266 0.001364021894 0)
(-0.002760534192 0.001064913139 0)
(-0.001936357 0.001514976776 0)
(-0.003795636576 0.00115526376 0)
(-0.003074655438 0.001656286153 0)
(-0.004897915334 0.001233839818 0)
(-0.004298944259 0.001783696261 0)
(-0.006056432191 0.001296560141 0)
(-0.005598857045 0.001891471959 0)
(-0.007256631861 0.001338913426 0)
(-0.006959688079 0.001973097322 0)
(-0.008480333899 0.001356314294 0)
(-0.008362434477 0.002021823566 0)
(-0.009705955303 0.001344440989 0)
(-0.009784006923 0.00203112041 0)
(-0.01090897371 0.001299518953 0)
(-0.01119763639 0.001995145016 0)
(-0.0120625381 0.001218514187 0)
(-0.01257353674 0.001909049737 0)
(-0.01313819455 0.00109929286 0)
(-0.01387967684 0.001769211718 0)
(-0.0141067223 0.000940788406 0)
(-0.01508266655 0.001573454625 0)
(-0.0149390663 0.000743191408 0)
(-0.01614877288 0.001321299485 0)
(-0.01560739068 0.0005081635462 0)
(-0.01704506325 0.001014237157 0)
(-0.01608624275 0.0002390604851 0)
(-0.01774067868 0.0006560187587 0)
(-0.01635380718 -5.885392114e-05 0)
(-0.01820822149 0.0002529317003 0)
(-0.01639324781 -0.0003782180469 0)
(-0.01842522107 -0.0001859541568 0)
(-0.01619409022 -0.0007093937489 0)
(-0.01837538226 -0.0006485917273 0)
(-0.01575364686 -0.001040359421 0)
(-0.01805113643 -0.001119752504 0)
(-0.0150784858 -0.00135796487 0)
(-0.01745396215 -0.001580929956 0)
(-0.01418433026 -0.001650257112 0)
(-0.01659641552 -0.002013791968 0)
(-0.01309433652 -0.001907511958 0)
(-0.01550106668 -0.002403337172 0)
(-0.0118374976 -0.002122311077 0)
(-0.01419748137 -0.002737615513 0)
(-0.01044698367 -0.00228963058 0)
(-0.01272101285 -0.003007992259 0)
(-0.008958508549 -0.002406784192 0)
(-0.01111087699 -0.003209118889 0)
(-0.007408735692 -0.002473315246 0)
(-0.009408402717 -0.003338826135 0)
(-0.005833748672 -0.002490834697 0)
(-0.007655286748 -0.00339797428 0)
(-0.00426764311 -0.002462777819 0)
(-0.0058918921 -0.003390199121 0)
(-0.00274130435 -0.00239407049 0)
(-0.004155684416 -0.00332152471 0)
(-0.001281450023 -0.002290718224 0)
(-0.002479903155 -0.003199839041 0)
(9.000409718e-05 -0.002159351196 0)
(-0.0008925674832 -0.003034265472 0)
(0.001356222882 -0.002006769785 0)
(0.0005841168986 -0.002834492328 0)
(0.002505384596 -0.001839550346 0)
(0.001933901351 -0.002610128864 0)
(0.003530332398 -0.001663828452 0)
(0.003146142736 -0.002370165551 0)
(0.004427988428 -0.001485145567 0)
(0.00421596724 -0.00212280532 0)
(0.005199121582 -0.001307750456 0)
(0.005141391923 -0.001875420411 0)
(0.005847110719 -0.00113466607 0)
(0.005926446088 -0.001632809679 0)
(0.006377244867 -0.0009683838125 0)
(0.006576694815 -0.001398787441 0)
(0.006796137135 -0.0008108246557 0)
(0.007099356257 -0.001176302976 0)
(0.007111255552 -0.0006633322068 0)
(0.007502939382 -0.0009673968273 0)
(0.007330557368 -0.0005267804337 0)
(0.007796519272 -0.0007734049672 0)
(0.007462203593 -0.0004016439707 0)
(0.007989409383 -0.0005950780264 0)
(0.007514337141 -0.0002880660657 0)
(0.008090899624 -0.0004326841916 0)
(0.007494915661 -0.000185919872 0)
(0.008110055679 -0.0002861119441 0)
(0.007411582279 -9.485697723e-05 0)
(0.008055571878 -0.0001549405695 0)
(0.00727155655 -1.434271641e-05 0)
(0.007935688002 -3.849342227e-05 0)
(0.007081560148 5.630534127e-05 0)
(0.007758038829 6.411819725e-05 0)
(0.00684777173 0.0001178648677 0)
(0.007529675482 0.000153922219 0)
(0.006575800544 0.0001711749177 0)
(0.007257008484 0.0002320347261 0)
(0.006270661605 0.0002171134467 0)
(0.006945785938 0.0002996366893 0)
(0.005936782939 0.0002565566765 0)
(0.006601096632 0.0003579313006 0)
(0.005578036031 0.0002903139719 0)
(0.006227389979 0.0004080768716 0)
(0.005197819757 0.0003190424642 0)
(0.0058285411 0.0004510815262 0)
(0.004799198352 0.0003431464915 0)
(0.005407967608 0.0004876789549 0)