/*--------------------------------*- C++ -*----------------------------------*\
| =========                 |                                                 |
| \\      /  F ield         | OpenFOAM: The Open Source CFD Toolbox           |
|  \\    /   O peration     | Version:  2412                                  |
|   \\  /    A nd           | Website:  www.openfoam.com                      |
|    \\/     M anipulation  |                                                 |
\*---------------------------------------------------------------------------*/
FoamFile
{
    version     2.0;
    format      ascii;
    arch        "LSB;label=32;scalar=64";
    class       volScalarField;
    location    "0.05";
    object      T;
}
// * * * * * * * * * * * * * * * * * * * * * * * * * * * * * * * * * * * * * //

dimensions      [0 0 0 1 0 0 0];

internalField   nonuniform List<scalar> 
12008
(
305.2594767
305.260775
305.2633903
305.2675856
305.2736931
305.2821678
305.2935944
305.3086926
305.3283179
305.3534553
305.3852044
305.424751
305.4733255
305.532145
305.6023421
305.6848791
305.7804527
305.889396
306.0115833
306.146349
306.2924287
306.4479317
306.6103509
306.7766145
306.9431777
307.1061508
307.2614545
307.4049933
307.532833
307.6413714
307.7274887
307.7886627
307.8227131
307.8293872
307.8084876
307.760528
307.6869837
307.5900887
307.4727154
307.3382397
307.1903872
307.0330687
306.8702109
306.7056063
306.5427734
306.3848431
306.2344742
306.093801
305.9644102
305.8473481
305.7431512
305.6518981
305.5732761
305.5066571
305.4511782
305.4058213
305.3694889
305.3410716
305.3195049
305.3038135
305.293143
305.2867805
305.2841547
305.2848272
305.2884934
305.294949
305.3040488
305.3156847
305.3297553
305.3461362
305.3646575
305.3850895
305.4071392
305.4304584
305.4546621
305.4793571
305.5041736
305.5287981
305.5529988
305.5766392
305.5996761
305.6221386
305.644092
305.6655898
305.6866227
305.7070719
305.7266767
305.7450211
305.761544
305.7755721
305.7863709
305.7931514
305.7953161
305.7924113
305.7840849
305.770239
305.751025
305.7268417
305.6983083
305.666222
305.6315047
305.5951436
305.5581329
305.5214184
305.4858512
305.4521519
305.4208871
305.3924593
305.3671079
305.3449218
305.3258585
305.3097693
305.2964267
305.2855509
305.2768353
305.2699666
305.264642
305.2605812
305.2575337
305.2552829
305.2536466
305.2524754
305.2516501
305.2510774
305.2506862
305.2504231
305.250249
305.2501358
305.2500635
305.2500183
305.2499908
305.2499745
305.2499653
305.2499599
305.2499564
305.2499528
305.2499475
305.2499389
305.2499257
305.2499098
305.2605289
305.2619475
305.264821
305.2694253
305.2761208
305.2854007
305.2978986
305.3143938
305.3358121
305.3632192
305.3978037
305.4408459
305.4936733
305.5575978
305.6338382
305.7234278
305.8271127
305.9452463
306.0776888
306.2237219
306.3819871
306.5504588
306.7264576
306.9067067
307.0874313
307.2644944
307.4335602
307.5902753
307.7304528
307.8502499
307.9463271
308.0159842
308.056618
308.0679214
308.0498456
308.0025397
307.9274408
307.8267811
307.7034827
307.5610292
307.4033123
307.2344633
307.0586836
306.8800724
306.7024771
306.5293663
306.3637312
306.2080191
306.0640988
305.9332582
305.8162293
305.7132365
305.624063
305.548129
305.4845762
305.432354
305.3903019
305.357225
305.3319593
305.3134236
305.3006578
305.2928467
305.2893282
305.2895873
305.2932413
305.3000476
305.3098077
305.3223741
305.3376121
305.3553686
305.3754492
305.3976052
305.4215325
305.4468832
305.4732882
305.5003887
305.5278697
305.5554909
305.5831075
305.610675
305.6382339
305.6658745
305.6936858
305.7216951
305.7498079
305.7777598
305.8050879
305.8311284
305.8550428
305.8758698
305.8925966
305.9042077
305.9097377
305.9087898
305.9008664
305.8858422
305.8639141
305.8355939
305.8016667
305.7631362
305.7211573
305.6769644
305.631799
305.586844
305.5431665
305.5016742
305.4630864
305.4279202
305.3964916
305.3689296
305.345199
305.3251313
305.3084573
305.2948408
305.2839087
305.275278
305.2685761
305.2634563
305.259608
305.2567613
305.2546886
305.253203
305.2521547
305.2514264
305.2509282
305.2505927
305.2503703
305.2502254
305.2501326
305.2500744
305.2500388
305.2500176
305.2500055
305.2499987
305.2499945
305.2499911
305.2499866
305.2499789
305.2499634
305.2499253
305.2625859
305.2642582
305.2676542
305.2730866
305.2809715
305.2918781
305.3065361
305.3258412
305.3508562
305.3828018
305.4230364
305.4730198
305.5342608
305.6082454
305.6963482
305.7997291
305.9192194
306.0552055
306.2075201
306.3753494
306.5571703
306.750724
306.9530338
307.1604698
307.3688566
307.5736199
307.7699595
307.95304
308.118184
308.2610597
308.3778503
308.4654037
308.5207936
308.5426107
308.5315569
308.4869842
308.4101806
308.3033187
308.169376
308.0120177
307.835444
307.6442141
307.4430584
307.2366902
307.0296273
306.8260344
306.6295927
306.4434036
306.2699292
306.1109693
305.9676732
305.840581
305.7296891
305.6345317
305.5542748
305.4878136
305.4338695
305.3910815
305.3580878
305.3335939
305.3164246
305.3055589
305.3001469
305.2995104
305.3031012
305.3105986
305.3216911
305.3361457
305.3537564
305.3743101
305.3975631
305.4232316
305.4509963
305.480522
305.5114878
305.543624
305.5767478
305.6107883
305.6457946
305.6819193
305.7193753
305.758369
305.799019
305.8412707
305.8848228
305.9290768
305.9731216
306.0157561
306.0555497
306.0909331
306.1203106
306.1421792
306.1549635
306.158075
306.1510251
306.1335007
306.1058017
306.0686783
306.0232653
305.9710011
305.9135332
305.8526186
305.7900256
305.7274423
305.6663984
305.6082039
305.5539068
305.5042731
305.4597859
305.4206628
305.3868874
305.3582503
305.3343953
305.3148658
305.2991484
305.2867102
305.2770292
305.2696171
305.2640335
305.2598945
305.2568748
305.2547061
305.2531729
305.2521057
305.2513743
305.2508808
305.250553
305.2503388
305.2502013
305.2501146
305.2500612
305.2500292
305.2500107
305.2500004
305.2499948
305.2499914
305.2499885
305.2499849
305.2499776
305.2499382
305.2657711
305.2678306
305.2720241
305.2787185
305.2884128
305.3017877
305.3197131
305.3432545
305.3736714
305.4124059
305.4610565
305.5213335
305.5949959
305.6837662
305.7892282
305.912708
306.0551463
306.2169698
306.3979719
306.5972152
306.8129656
307.0426676
307.2829673
307.5297824
307.7784178
308.0237189
308.2602528
308.4825071
308.685095
308.8629555
309.0115383
309.1269645
309.2060919
309.2455739
309.2469559
309.2087404
309.1318462
309.0182809
308.871017
308.693896
308.4914792
308.2688684
308.0315063
307.7849649
307.5347315
307.286006
307.0435209
306.8113953
306.5930324
306.3910605
306.2073203
306.0428912
305.8981521
305.7728666
305.6662876
305.5772709
305.5043932
305.4460671
305.4006474
305.3665239
305.3421961
305.3263262
305.3177707
305.3155884
305.3189839
305.3274655
305.340574
305.3579217
305.3791866
305.40406
305.4322259
305.4633575
305.4971327
305.5332658
305.5715493
305.6118976
305.6543797
305.6992317
305.7468372
305.7976713
305.8522085
305.9108048
305.9735691
306.040245
306.1101213
306.1819893
306.2541551
306.3245095
306.3906461
306.4500157
306.5000992
306.5385829
306.5631967
306.572604
306.5667902
306.5449874
306.5076801
306.4560117
306.3916818
306.3168255
306.2338793
306.1454391
306.0541223
305.9624371
305.8726697
305.7867932
305.706404
305.6326878
305.5664148
305.5079618
305.4573549
305.4143278
305.3783886
305.3488882
305.3250847
305.3061996
305.2914648
305.280156
305.2716172
305.2652731
305.2606345
305.2572961
305.2549311
305.2532816
305.2521489
305.251383
305.2508733
305.2505394
305.2503243
305.2501882
305.2501039
305.2500529
305.2500232
305.2500065
305.2499978
305.2499934
305.2499913
305.24999
305.2499859
305.2499473
305.2701909
305.2727775
305.2780556
305.2864628
305.2986063
305.3153109
305.3376277
305.3668381
305.4044511
305.4521862
305.5119395
305.5857282
305.675613
305.7835981
305.9115116
306.0608702
306.2327372
306.4275813
306.6451499
306.884366
307.1432616
307.4189538
307.7076693
308.0048161
308.3050996
308.602677
308.8913418
309.1647299
309.4165409
309.640761
309.8318789
309.9850863
310.096465
310.1621158
310.1817767
310.1548696
310.0812994
309.9628157
309.8022651
309.6035578
309.3715215
309.1117411
308.830375
308.533941
308.2290746
307.9222743
307.6196545
307.3267265
307.0482244
306.7879872
306.5488995
306.3328894
306.1409736
305.9733421
305.8294712
305.708256
305.6081534
305.5273277
305.4637904
305.4155269
305.380604
305.3572509
305.3439121
305.33927
305.3421872
305.3518673
305.3676796
305.3889881
305.4152994
305.4461714
305.4811983
305.5200192
305.5623503
305.6080339
305.6570946
305.7097853
305.7666094
305.8283015
305.895759
305.969918
306.0515853
306.1412456
306.2388722
306.3437721
306.4544913
306.5687992
306.6837588
306.7958736
306.9012964
306.9960725
307.0763934
307.1388383
307.1802337
307.1981455
307.1935087
307.164822
307.1128754
307.0393979
306.9469022
306.8385134
306.7177836
306.5884995
306.4544908
306.3194493
306.1867662
306.0593971
305.9397643
305.8296989
305.7304258
305.6425888
305.5663063
305.5012531
305.4467558
305.4018929
305.3655916
305.3367121
305.3141189
305.2967339
305.2835739
305.2737726
305.2665892
305.2614076
305.2577286
305.2551572
305.2533878
305.2521889
305.2513893
305.2508643
305.2505251
305.2503098
305.2501757
305.2500941
305.2500459
305.2500186
305.2500041
305.2499973
305.2499947
305.2499941
305.2499913
305.2499533
305.2759731
305.2792332
305.2858946
305.296481
305.3117299
305.3326397
305.3604766
305.3967776
305.4433433
305.5022144
305.5756266
305.6659428
305.7755587
305.9067855
306.0617133
306.24206
306.4490165
306.6830968
306.9440058
307.2305341
307.5404898
307.8706731
308.2168944
308.5740373
308.9361631
309.2966531
309.6483882
309.9839631
310.2959316
310.5770736
310.8206668
311.0207517
311.1723841
311.2714925
311.3156794
311.3051521
311.239226
311.1193085
310.948009
310.7291645
310.4676222
310.1691498
309.8403398
309.4884591
309.1212246
308.746516
308.3720534
308.005077
307.652065
307.3185148
307.0088039
306.7261294
306.4725188
306.2489001
306.0552171
305.8905776
305.753423
305.6417096
305.5530898
305.4850838
305.4352303
305.4012078
305.3809199
305.3725419
305.3744848
305.3854637
305.4046652
305.4310809
305.4639809
305.502752
305.5468942
305.5960511
305.6500653
305.7090501
305.7734566
305.8441137
305.9222172
306.0092516
306.1068347
306.2164881
306.3393576
306.4759239
306.6257456
306.7872785
306.9578035
307.1334787
307.3095117
307.4804303
307.6404171
307.7836699
307.9047491
307.9988885
308.0617592
308.0897715
308.0853183
308.0458699
307.9727043
307.8683674
307.7364506
307.5813654
307.4081059
307.222003
307.0284768
306.832794
306.6398428
306.4539391
306.2786753
306.1168236
305.9702983
305.8401764
305.7267657
305.6297108
305.5481269
305.4807432
305.426043
305.3823901
305.3481356
305.3217001
305.3016324
305.2866454
305.2756323
305.2676682
305.2619998
305.2580286
305.2552896
305.2534299
305.2521866
305.2513685
305.2508387
305.2505012
305.2502902
305.250161
305.250084
305.2500396
305.2500155
305.2500036
305.2499989
305.2499978
305.2499952
305.2499573
305.2832547
305.2873395
305.295691
305.3089318
305.3279481
305.353935
305.3884012
305.4331683
305.4903583
305.5623613
305.6517782
305.7613376
305.8937845
306.0517462
306.2375804
306.4532123
306.6999723
306.9784428
307.2883259
307.6283378
307.9961371
308.3882879
308.800257
309.2264455
309.6602551
310.0941964
310.5200454
310.9290636
311.3122855
311.660864
311.9664513
312.2215994
312.420146
312.5574831
312.6306495
312.6392578
312.5836207
312.464861
312.285552
312.0496072
311.7616363
311.4270731
311.0522965
310.6446846
310.2125316
309.7648079
309.3107931
308.8596374
308.4199219
307.9992798
307.6041162
307.2394403
306.9088038
306.6143306
306.3568172
306.1358867
305.9501826
305.7975862
305.675446
305.5808037
305.510602
305.4618605
305.4318075
305.4179634
305.4181638
305.4303963
305.4536649
305.4864345
305.5276654
305.5765415
305.6324919
305.6952514
305.7649489
305.8422016
305.9281837
306.0246361
306.1337857
306.2581611
306.4002972
306.5623488
306.7456645
306.9503859
307.1751345
307.4168427
307.6707608
307.9306429
308.1890876
308.4379881
308.6690322
308.8741971
309.0461912
309.178819
309.2663096
309.3044889
309.2975512
309.2417092
309.1389935
308.993019
308.8086977
308.5919705
308.3495333
308.0885523
307.8163671
307.5401878
307.266799
307.0022895
306.7518277
306.519502
306.308237
306.1197945
305.9548438
305.813089
305.6934456
305.5942381
305.5133983
305.4486487
305.3976604
305.3581772
305.3281071
305.3055798
305.2889761
305.2769346
305.2683406
305.2623039
305.2581299
305.2552888
305.2533851
305.2521292
305.2513139
305.2507932
305.2504663
305.2502652
305.2501442
305.2500737
305.2500344
305.250014
305.2500049
305.2500018
305.2499984
305.2499604
305.2921687
305.2972305
305.3075797
305.3239464
305.3473788
305.3792848
305.4214324
305.4759454
305.5452825
305.6321956
305.7396592
305.8707717
306.0286295
306.2161793
306.4360569
306.6904214
306.980794
307.3079117
307.6715993
308.0706649
308.5028146
308.9645844
309.4512834
309.9569519
310.4743414
310.9949435
311.5090917
312.0061787
312.4750075
312.9042709
313.2831359
313.601907
313.852709
314.0300254
314.1309682
314.1553405
314.1062636
313.9846272
313.7943604
313.540709
313.2281602
312.8613408
312.4454632
311.9868097
311.4930497
310.9732683
310.4376872
309.8971438
309.3624503
308.8437682
308.3500913
307.888885
307.4658844
307.0850338
306.7485396
306.4570093
306.2096558
306.0045479
305.838889
305.7093066
305.6121299
305.5436368
305.500252
305.478687
305.4760236
305.4893314
305.5173234
305.5578258
305.6093969
305.6710067
305.7420821
305.8226121
305.9132733
306.0155399
306.1317282
306.2649297
306.4187999
306.597199
306.803683
307.0409032
307.3100074
307.6101364
307.9381036
308.2883156
308.6529546
309.0223962
309.3858038
309.7318156
310.0492383
310.3276712
310.5580154
310.7328535
310.8446195
310.8903648
310.8757063
310.7956751
310.6534045
310.4538091
310.2032698
309.909362
309.5805839
309.2260671
308.8552573
308.477567
308.1020112
307.7368494
307.3892643
307.065107
306.7687344
306.5029567
306.2690893
306.0670871
305.8957586
305.7530256
305.6361939
305.5422122
305.4678987
305.4101265
305.3659617
305.3327561
305.3081982
305.2903298
305.2775376
305.2685252
305.2622762
305.2580112
305.2551459
305.253251
305.2520175
305.2512275
305.25073
305.2504224
305.2502362
305.2501265
305.2500641
305.2500305
305.2500141
305.2500072
305.2500021
305.2499632
305.3028283
305.3090158
305.3216607
305.3416046
305.3700642
305.4086672
305.4594477
305.5248353
305.6076274
305.7109362
305.8381065
305.9926049
306.1778843
306.3972327
306.653614
306.9495134
307.286793
307.6665624
308.0890625
308.5535533
309.058194
309.5999016
310.1741821
310.7749417
311.3943019
312.0224762
312.647766
313.2567532
313.834738
314.3664131
314.8367479
315.2321109
315.5415488
315.7578929
315.8783472
315.9044249
315.8443847
315.6994939
315.4794355
315.1934003
314.8473333
314.4454423
313.9909839
313.4874533
312.9397521
312.3549742
311.7425947
311.1140592
310.4819542
309.8590316
309.2573085
308.6873694
308.1579044
307.67547
307.2444313
306.8670456
306.5436511
306.2729354
306.0522594
305.8780129
305.7459743
305.6516474
305.590547
305.5584191
305.5513856
305.5654726
305.5987997
305.6486014
305.7128869
305.7904466
305.8808513
305.9846167
306.1033661
306.2399291
306.3983107
306.5834696
306.8008838
307.0559209
307.3530268
307.6948629
308.0815379
308.5100618
308.9741229
309.4642364
309.968245
310.4720968
310.9607819
311.4192989
311.8335332
312.1909631
312.4811604
312.6961143
312.8260517
312.8730493
312.8420056
312.7276645
312.5346524
312.2693147
311.9394689
311.5541985
311.123644
310.6587624
310.1710352
309.6721135
309.1734065
308.6856399
308.2184181
307.7798404
307.3762121
307.0118877
306.6892624
306.4088836
306.1696799
305.9692808
305.8043703
305.6710386
305.565101
305.4823663
305.4188435
305.3708864
305.3352799
305.3092767
305.2905951
305.2773898
305.2682045
305.2619169
305.2576806
305.2548712
305.2530376
305.2518599
305.2511158
305.250654
305.2503728
305.2502056
305.2501091
305.2500557
305.2500281
305.2500151
305.2500069
305.2499667
305.315312
305.3227646
305.3379812
305.3619143
305.3959482
305.4419281
305.5021496
305.5793419
305.6766325
305.7974865
305.9456171
306.1248714
306.3390977
306.5920061
306.8870327
307.2272168
307.6150922
308.0525882
308.5409217
309.0804576
309.6705065
310.3090389
310.9923079
311.7144085
312.4668228
313.2380517
314.0134541
314.7753938
315.5037477
316.1767798
316.7723831
317.2698593
317.6522276
317.9084404
318.0348235
318.0361075
317.9281958
317.7110329
317.4122177
317.0486702
316.6326328
316.1708139
315.6652168
315.1150998
314.5195615
313.879992
313.2016271
312.493831
311.7692888
311.0426067
310.3288214
309.6421296
308.994961
308.3974007
307.8569085
307.378271
306.9637269
306.613222
306.3247616
306.0948273
305.9188266
305.7915357
305.7074985
305.6613535
305.6480724
305.6624741
305.7017705
305.7626887
305.842564
305.9401115
306.055306
306.1896143
306.3461734
306.5298239
306.7469067
307.0047666
307.3109679
307.6722704
308.0934294
308.5760628
309.1177821
309.7117432
310.3467117
311.0076459
311.6767049
312.3345195
312.9615355
313.5392479
314.0511902
314.4836042
314.8257745
315.0700467
315.2045229
315.2421758
315.1821155
315.0213209
314.7661768
314.4243846
314.0049111
313.517924
312.974712
312.3875621
311.7695606
311.1342925
310.4954323
309.8662436
309.2590277
308.6845809
308.1517266
307.6669872
307.2344431
306.8557705
306.53044
306.2560706
306.0288668
305.8440775
305.6964305
305.5805114
305.4910656
305.4232198
305.3726231
305.3355179
305.3087551
305.2897672
305.2765134
305.2674106
305.2612584
305.2571662
305.2544876
305.252762
305.2516686
305.2509873
305.2505706
305.2503211
305.2501754
305.2500932
305.250049
305.2500269
305.2500139
305.2499716
305.3296484
305.33849
305.3565209
305.3847976
305.4248646
305.4787747
305.5490734
305.638777
305.7513347
305.890566
306.0605754
306.2656495
306.5101487
306.7984051
307.1346387
307.5228929
307.9669825
308.4704275
309.036335
309.6671793
310.3644315
311.1280152
311.9555914
312.8417423
313.7771644
314.7480043
315.7355032
316.7161009
317.6619965
318.5420745
319.3233139
319.9732488
320.4637166
320.774805
320.8974861
320.8460391
320.6280411
320.2579145
319.7865259
319.250036
318.6767151
318.083772
317.4769587
316.8522827
316.2001307
315.5107172
314.7788435
314.006362
313.2021171
312.3802228
311.5577276
310.7524035
309.9810045
309.2580728
308.5952382
308.0009037
307.4802184
307.0352639
306.6653987
306.3677205
306.137602
305.9692534
305.8562602
305.7920523
305.770279
305.784396
305.8303707
305.9045822
306.00362
306.1263412
306.2735464
306.4482687
306.6559144
306.9041204
307.2022287
307.5603407
307.9880267
308.4927652
309.0783171
309.7434016
310.4809036
311.2777772
312.1156915
312.9723201
313.8230553
314.6428674
315.4080347
316.0975328
316.6939678
317.1840267
317.5585036
317.8096575
317.9281966
317.941281
317.8357686
317.6152864
317.2877985
316.8620069
316.3474721
315.7547257
315.095373
314.3821533
313.6289115
312.8504353
312.0621258
311.2795017
310.5175676
309.7901081
309.1089977
308.4836266
307.9205279
307.4232572
306.9924931
306.626363
306.3209416
306.0708208
305.8696798
305.7108032
305.5875131
305.493497
305.4230327
305.3711151
305.3335038
305.3067087
305.2879328
305.2749904
305.2662131
305.2603559
305.2565099
305.2540249
305.2524452
305.2514576
305.2508511
305.2504857
305.2502705
305.2501473
305.2500795
305.2500441
305.2500241
305.2499789
305.3458038
305.3561374
305.3771805
305.4100835
305.4565383
305.5187918
305.5996267
305.7023401
305.8307101
305.9889457
306.1816231
306.4136204
306.6900633
307.0162966
307.3978845
307.840632
308.3505959
308.9340315
309.5972022
310.3459758
311.185143
312.117458
313.1424611
314.255204
315.4450675
316.6948977
317.9806311
319.2714417
320.5302652
321.7144229
322.7765483
323.6672292
324.3401922
324.7582766
324.8966425
324.7799102
324.3899287
323.7584555
322.9730891
322.1040965
321.2116035
320.3393462
319.5109012
318.7273563
317.9709733
317.2146704
316.4331932
315.6111298
314.7456658
313.8451764
312.9258046
312.0077398
311.1120796
310.2585519
309.4640516
308.7418336
308.1011864
307.5474536
307.0823071
306.7042147
306.4090458
306.1907586
306.0420999
305.9552582
305.9224287
305.935585
305.9891091
306.0793122
306.202057
306.3567293
306.5455875
306.7740671
307.0507668
307.3869503
307.7954705
308.289162
308.8788563
309.5711802
310.3665895
311.2580729
312.2307694
313.2626246
314.3260016
315.3899678
316.4228546
317.3946719
318.2790467
319.0545072
319.7050803
320.2202733
320.5945253
320.8169955
320.8998905
320.8642024
320.6949605
320.4020142
319.9946195
319.4819534
318.8734369
318.1790392
317.4095916
316.5770823
315.6948767
314.7777859
313.8419223
312.9043091
311.9822483
311.0924928
310.2503219
309.4686557
308.7573484
308.1227767
307.5677488
307.0917056
306.6912145
306.3606311
306.0928146
305.8798122
305.713456
305.5858384
305.4896546
305.4184167
305.3665572
305.3294429
305.3033254
305.2852504
305.2729464
305.264707
305.2592787
305.25576
305.2535161
305.2521086
305.2512409
305.2507155
305.250404
305.2502238
305.2501229
305.2500688
305.2500389
305.2499894
305.3636717
305.3755754
305.3997778
305.437511
305.4906017
305.5614806
305.6531653
305.7692491
305.913887
306.0917777
306.3081516
306.5687769
306.8799998
307.2488268
307.6830407
308.1913151
308.7832608
309.4693089
310.2603153
311.1667931
312.1977267
313.35901
314.6516947
316.0703418
317.6017706
319.2243552
320.9079677
322.614461
324.2981905
325.9058003
327.3754844
328.63853
329.6248565
330.2701528
330.5159156
330.3726934
329.8003148
328.8065012
327.5405295
326.1237956
324.6663414
323.2629261
321.983725
320.8592509
319.8756697
318.9859226
318.1318385
317.2648789
316.3567009
315.3999559
314.4037103
313.3873826
312.3752861
311.3925009
310.4620952
309.6034466
308.8313735
308.1558334
307.5820248
307.110792
306.7392613
306.4616402
306.2700986
306.15565
306.1089749
306.1205114
306.1827591
306.2924005
306.4447425
306.6403126
306.8837117
307.1838271
307.5534601
308.0081902
308.564455
309.2370442
310.0362325
310.9649916
312.0169614
313.1755984
314.4147338
315.7005125
316.9943851
318.2565954
319.449538
320.5404607
321.5032127
322.3190012
322.9763162
323.4702705
323.7978264
323.9531688
323.9781637
323.8636529
323.6123294
323.2360207
322.7448173
322.1477931
321.4534672
320.6702671
319.8070494
318.8736588
317.8814586
316.8437255
315.7758016
314.6949426
313.6198186
312.5696634
311.563159
310.6172148
309.7458364
308.9592777
308.2636082
307.6606806
307.1484903
306.7218738
306.3733537
306.0940069
305.8742604
305.7045564
305.5758574
305.4799871
305.409821
305.3593543
305.3236754
305.2988764
305.2819268
305.2705335
305.2630004
305.2581009
305.2549661
305.2529933
305.2517725
305.2510303
305.2505877
305.2503295
305.2501832
305.2501034
305.2500599
305.2500045
305.3830673
305.3965931
305.4240506
305.4667437
305.526628
305.6063219
305.709102
305.8389176
306.0004178
306.1989976
306.4408733
306.7332028
307.0842626
307.5036724
308.0026309
308.5940864
309.292722
310.1146086
311.0763726
312.1937775
313.4797618
314.9421724
316.5816124
318.3898115
320.3488438
322.4312429
324.6008925
326.8143638
329.0217115
331.165089
333.1751584
334.9698101
336.4575594
337.5436669
338.1183584
338.0956778
337.4592841
336.0783226
334.198403
332.0118901
329.6858047
327.3940469
325.2974618
323.5068105
322.050536
320.8724766
319.868394
318.9333007
317.9907091
317.0003783
315.9530788
314.86103
313.7486955
312.6456096
311.5814124
310.5827129
309.6712952
308.8632505
308.1687466
307.592262
307.1331829
306.7866832
306.5447915
306.3975466
306.3341583
306.3435731
306.4162269
306.5498112
306.7394702
306.9877675
307.3027953
307.6980879
308.1915609
308.8033497
309.5527182
310.4544043
311.5148343
312.7290899
314.0793283
315.5350515
317.0553116
318.592511
320.0970714
321.5220634
322.8269809
323.980156
324.959707
325.7532509
326.3568123
326.7732335
326.9956589
327.0615265
326.9882479
326.7688846
326.4188706
325.9510855
325.3760011
324.7021249
323.9364494
323.0850023
322.1535446
321.1483918
320.0772911
318.9502099
317.7798843
316.5820487
315.3752476
314.1801237
313.0182324
311.9105282
310.8757656
309.9290923
309.0810826
308.3373219
307.6984828
307.1609251
306.7176234
306.359212
306.0750048
305.8538924
305.6850582
305.5584936
305.4653197
305.3979405
305.3500646
305.3166321
305.2936822
305.2781929
305.2679128
305.2612025
305.2568943
305.2541739
305.2524846
305.2514535
305.2508356
305.2504729
305.2502654
305.2501509
305.2500889
305.2500254
305.4037292
305.418905
305.4496695
305.4973971
305.5641825
305.6528639
305.7670472
305.9111678
306.0905913
306.3117599
306.5824
306.9118002
307.3111536
307.7939276
308.3761739
309.0766361
309.9164651
310.9183312
312.1047835
313.4958674
315.1062708
316.9425045
319.0007916
321.2661872
323.713112
326.3070669
329.0070967
331.7684949
334.5444206
337.2837715
339.9246858
342.3897141
344.584448
346.4010871
347.6872371
348.1734135
347.7757656
346.1550319
343.6378084
340.540053
337.0533094
333.4653475
330.058248
327.1016029
324.755881
323.0011452
321.6814006
320.6043862
319.6113194
318.6020002
317.5306458
316.3912615
315.2025597
313.9959622
312.8071682
311.6706944
310.6165944
309.6686654
308.8436507
308.1511429
307.5940321
307.1694021
306.8697736
306.6845744
306.6017329
306.6088761
306.6944052
306.8578924
307.0950096
307.411564
307.8205093
308.3412006
308.9971643
309.812447
310.8070377
311.9919093
313.3646702
314.9069382
316.5840319
318.3472661
320.1385807
321.8966264
323.5630517
325.0877572
326.4322944
327.5711703
328.4913378
329.1904149
329.6745214
329.9408916
330.028024
329.9691064
329.7568647
329.411054
328.9489987
328.3846503
327.728725
326.9889507
326.1704339
325.2762319
324.3081764
323.2679199
322.1581512
320.9837962
319.7530147
318.4779405
317.1749995
315.8645503
314.5698326
313.3153021
312.124599
311.0185131
310.0133137
309.119732
308.3426051
307.6811685
307.1299592
306.6799962
306.3200277
306.037692
305.8204949
305.6565527
305.5350949
305.4467466
305.3836306
305.3393343
305.3087855
305.2880782
305.2742795
305.2652385
305.259413
305.2557217
305.2534214
305.2520122
305.2511642
305.2506637
305.2503753
305.2502147
305.2501281
305.2500539
305.4253272
305.4421641
305.4762618
305.5290797
305.6028902
305.7008289
305.8269692
305.9864626
306.1857489
306.4328472
306.737737
307.1128234
307.5734454
308.1383339
308.8298548
309.6738041
310.6984901
311.9328869
313.4038169
315.1324239
317.1305681
319.3980067
321.9211957
324.6741371
327.6210624
330.7202409
333.9281564
337.2035917
340.5104809
343.8161639
347.0835337
350.2645662
353.2953731
356.0938503
358.5376506
360.3384449
361.0782623
359.2558565
356.3266805
352.3296572
347.4453232
342.2613958
337.02484
332.2336652
328.3745761
325.5827798
323.6626642
322.2976031
321.1988782
320.1672937
319.0937512
317.9374334
316.7018363
315.4154879
314.1183075
312.8526561
311.6578048
310.566722
309.6043867
308.7871391
308.1228219
307.6115925
307.2473046
307.0193291
306.9146835
306.9200071
307.0220192
307.2233028
307.5211082
307.9259971
308.4572433
309.1408771
310.0056599
311.077492
312.3730863
313.8939881
315.6225074
317.5204724
319.5313066
321.5853464
323.6074854
325.5255177
327.277381
328.8159717
330.1110615
331.1486606
331.9286918
332.4613262
332.7441331
332.8304949
332.7548816
332.5171031
332.1424745
331.6538799
331.0705135
330.4074168
329.6755644
328.8819213
328.0296804
327.1187902
326.146823
325.1101684
324.0055075
322.8313725
321.589579
320.2865531
318.9343199
317.5507246
316.1587966
314.7851854
313.457855
312.2034486
311.0448139
309.9991487
309.0770158
308.2821145
307.6119493
307.0590554
306.612444
306.2590401
305.9849608
305.7765415
305.6210757
305.5072782
305.4255102
305.3678164
305.3278312
305.3006036
305.2823827
305.2703967
305.2626449
305.2577152
305.2546325
305.2527371
305.2515919
305.250913
305.2505196
305.2502989
305.2501801
305.250092
305.447481
305.4659854
305.5034453
305.5614459
305.6425167
305.750231
305.8893594
306.0661232
306.2885549
306.5669737
306.9145674
307.3480409
307.8882279
308.5604854
309.3946002
310.4238839
311.6831597
313.2055294
315.0181555
317.1377543
319.5668804
322.2921413
325.2850673
328.5055893
331.9072601
335.4429664
339.0701673
342.7555234
346.4785533
350.2308204
354.0081693
357.8066396
361.6250732
365.4331343
369.183432
372.8509878
373.4332863
373.2797323
371.6094081
367.5476929
360.905666
354.3856485
347.06247
339.6014915
333.3438466
328.8645222
325.9368594
324.0592621
322.7531593
321.6709509
320.6058477
319.4603648
318.2097429
316.8724142
315.4890806
314.108875
312.7806445
311.5476991
310.4448228
309.4967852
308.7179682
308.1129504
307.6779591
307.403065
307.2749607
307.2798161
307.4034684
307.6528993
308.0283887
308.5469816
309.2355705
310.1269547
311.253333
312.6383922
314.2893471
316.1909437
318.3028857
320.5612896
322.8843551
325.1814898
327.3640263
329.3550558
331.0962764
332.5509035
333.7029585
334.5540357
335.1201067
335.3981263
335.4664891
335.346501
335.0525211
334.6156688
334.0647144
333.4247433
332.7163906
331.9555966
331.1535523
330.3165987
329.4463228
328.5399665
327.5912141
326.5914037
325.5310859
324.4018071
323.1979191
321.9184843
320.5689609
319.1621974
317.7185185
316.2646184
314.8313003
313.450429
312.1516735
310.9596617
309.8920878
308.9587804
308.1618215
307.4966624
306.9536839
306.5198925
306.1805216
305.9203882
305.7249279
305.5808965
305.4767674
305.4028805
305.3514055
305.3161852
305.2925103
305.2768719
305.2667185
305.2602378
305.2561707
305.2536611
305.2521392
305.2512331
305.2507055
305.2504079
305.2502477
305.2501417
305.4697858
305.4899769
305.5308722
305.5942567
305.6830515
305.8014881
305.9553725
306.152489
306.4031477
306.7208678
307.1231553
307.6322706
308.2757912
309.0866708
310.1024116
311.3629729
312.907202
314.7679586
316.9666585
319.5084972
322.3798167
325.5486975
328.96895
332.586621
336.3474096
340.2033663
344.1179478
348.0697659
352.0555968
356.0893586
360.1940694
364.4040301
368.8014401
373.515319
378.8964318
352.8560185
347.2044013
347.9878778
348.6316605
348.7874656
354.8881322
369.8751345
361.3168045
349.9030441
339.9848831
332.9996369
328.588705
325.9326032
324.284644
323.1003213
322.0402554
320.926754
319.6917205
318.334396
316.8912936
315.4161146
313.9668713
312.5979086
311.3551328
310.273342
309.3750831
308.6708235
308.1603722
307.835456
307.6832663
307.6902275