/*--------------------------------*- C++ -*----------------------------------*\
| =========                 |                                                 |
| \\      /  F ield         | OpenFOAM: The Open Source CFD Toolbox           |
|  \\    /   O peration     | Version:  2412                                  |
|   \\  /    A nd           | Website:  www.openfoam.com                      |
|    \\/     M anipulation  |                                                 |
\*---------------------------------------------------------------------------*/
FoamFile
{
    version     2.0;
    format      ascii;
    arch        "LSB;label=32;scalar=64";
    class       volVectorField;
    location    "0.05";
    object      U;
}
// * * * * * * * * * * * * * * * * * * * * * * * * * * * * * * * * * * * * * //

dimensions      [0 1 -1 0 0 0 0];

internalField   nonuniform List<vector> 
12008
(
(-9.431657781e-06 -2.464096741e-05 0)
(2.148474836e-05 -4.357590508e-05 0)
(9.023057201e-05 -4.857491461e-05 0)
(0.0001690964439 -4.959574255e-05 0)
(0.0002476417167 -4.922627573e-05 0)
(0.0003217525187 -4.824042252e-05 0)
(0.000388513557 -4.687564101e-05 0)
(0.0004454723651 -4.516427082e-05 0)
(0.0004904187168 -4.311560566e-05 0)
(0.0005214316865 -4.074457722e-05 0)
(0.0005368984825 -3.806165982e-05 0)
(0.0005354769292 -3.506300496e-05 0)
(0.0005160198625 -3.173243218e-05 0)
(0.0004775422396 -2.805163683e-05 0)
(0.0004192346378 -2.40096958e-05 0)
(0.0003405174978 -1.960939899e-05 0)
(0.0002411138911 -1.485845429e-05 0)
(0.0001211617394 -9.797537905e-06 0)
(-1.870415874e-05 -4.49554373e-06 0)
(-0.0001772712084 9.722806157e-07 0)
(-0.0003527417697 6.513250484e-06 0)
(-0.0005426225861 1.203294021e-05 0)
(-0.0007439525715 1.744490046e-05 0)
(-0.0009532594389 2.265881219e-05 0)
(-0.001166723049 2.759280598e-05 0)
(-0.001380333435 3.217926783e-05 0)
(-0.00159006853 3.636500278e-05 0)
(-0.001792073429 4.010793704e-05 0)
(-0.001982818778 4.337102279e-05 0)
(-0.002159220231 4.611343449e-05 0)
(-0.002318708459 4.828200428e-05 0)
(-0.002459261447 4.980706154e-05 0)
(-0.002579351369 5.059087678e-05 0)
(-0.002677959795 5.052903454e-05 0)
(-0.002754453867 4.951156356e-05 0)
(-0.002808439894 4.744351407e-05 0)
(-0.002839778685 4.424963015e-05 0)
(-0.002848506244 3.98900088e-05 0)
(-0.002834791628 3.436704168e-05 0)
(-0.002798937072 2.774197184e-05 0)
(-0.002741440124 2.015152179e-05 0)
(-0.002663109645 1.18045768e-05 0)
(-0.002565094593 2.992660351e-06 0)
(-0.002449090888 -5.941757034e-06 0)
(-0.002317310071 -1.465443323e-05 0)
(-0.002172413621 -2.283288373e-05 0)
(-0.002017396587 -3.022076639e-05 0)
(-0.001855441314 -3.6632782e-05 0)
(-0.00168976412 -4.195897525e-05 0)
(-0.001523471912 -4.616081227e-05 0)
(-0.001359451446 -4.925737171e-05 0)
(-0.001200291564 -5.131292507e-05 0)
(-0.001048233555 -5.24241884e-05 0)
(-0.0009051465648 -5.270708091e-05 0)
(-0.0007725264102 -5.228362895e-05 0)
(-0.0006515121981 -5.127561228e-05 0)
(-0.0005429229631 -4.979732645e-05 0)
(-0.0004472854738 -4.795531891e-05 0)
(-0.0003648857887 -4.584633998e-05 0)
(-0.0002958058973 -4.355361538e-05 0)
(-0.0002399761391 -4.114597592e-05 0)
(-0.0001972140886 -3.868131744e-05 0)
(-0.0001672694742 -3.62032522e-05 0)
(-0.0001498438293 -3.375391371e-05 0)
(-0.0001446008052 -3.136971812e-05 0)
(-0.000151214291 -2.907049626e-05 0)
(-0.0001693552881 -2.687366555e-05 0)
(-0.0001987112651 -2.479345033e-05 0)
(-0.0002389841215 -2.28414079e-05 0)
(-0.0002898878471 -2.102535743e-05 0)
(-0.0003511362598 -1.935045617e-05 0)
(-0.0004224226139 -1.782269607e-05 0)
(-0.000503398419 -1.643952487e-05 0)
(-0.000593648122 -1.519201907e-05 0)
(-0.0006926764328 -1.406651551e-05 0)
(-0.0007999015233 -1.304244372e-05 0)
(-0.0009146455983 -1.210032791e-05 0)
(-0.001036078224 -1.123946054e-05 0)
(-0.001163108148 -1.04796035e-05 0)
(-0.001294287617 -9.849949877e-06 0)
(-0.001427771811 -9.387579578e-06 0)
(-0.001561309151 -9.1402014e-06 0)
(-0.001692261181 -9.160202033e-06 0)
(-0.0018176509 -9.505544892e-06 0)
(-0.001934227841 -1.023812907e-05 0)
(-0.002038542254 -1.142167929e-05 0)
(-0.002127033835 -1.311703592e-05 0)
(-0.002196137956 -1.537553333e-05 0)
(-0.002242413526 -1.823113552e-05 0)
(-0.002262697721 -2.169111884e-05 0)
(-0.002254283328 -2.572734065e-05 0)
(-0.002215097217 -3.027166408e-05 0)
(-0.002143987289 -3.513368287e-05 0)
(-0.002041212499 -4.005354288e-05 0)
(-0.001908119187 -4.482598002e-05 0)
(-0.001747403252 -4.928290756e-05 0)
(-0.001562654538 -5.325442981e-05 0)
(-0.001358195545 -5.661158633e-05 0)
(-0.001138831123 -5.925889656e-05 0)
(-0.0009096137115 -6.113290301e-05 0)
(-0.0006756225371 -6.220450444e-05 0)
(-0.0004417598477 -6.247746913e-05 0)
(-0.0002125697495 -6.198641235e-05 0)
(7.908207335e-06 -6.079345674e-05 0)
(0.0002162446903 -5.898190455e-05 0)
(0.0004096818202 -5.664994677e-05 0)
(0.0005861489826 -5.39045279e-05 0)
(0.0007442404811 -5.085588205e-05 0)
(0.0008831856123 -4.762852534e-05 0)
(0.001002804627 -4.433485305e-05 0)
(0.001103338966 -4.10135975e-05 0)
(0.001185288736 -3.770761437e-05 0)
(0.001249380345 -3.448967941e-05 0)
(0.001296572077 -3.1419673e-05 0)
(0.001327984639 -2.854279054e-05 0)
(0.001344842043 -2.58913123e-05 0)
(0.001348422967 -2.348656294e-05 0)
(0.00134002522 -2.133986157e-05 0)
(0.001320933337 -1.945235242e-05 0)
(0.001292385952 -1.781808923e-05 0)
(0.001255561397 -1.642733965e-05 0)
(0.001211563164 -1.526445499e-05 0)
(0.001161399579 -1.430771699e-05 0)
(0.001105977273 -1.353495293e-05 0)
(0.001046101759 -1.292265987e-05 0)
(0.0009824756504 -1.244741808e-05 0)
(0.0009157039397 -1.208718362e-05 0)
(0.0008463095314 -1.182321566e-05 0)
(0.0007747577414 -1.164153414e-05 0)
(0.000701494745 -1.153726716e-05 0)
(0.0006269943527 -1.151499325e-05 0)
(0.0005518003548 -1.158839778e-05 0)
(0.0004765560669 -1.177859791e-05 0)
(0.0004020033103 -1.210975059e-05 0)
(0.0003289401536 -1.261024305e-05 0)
(0.0002581712846 -1.332608124e-05 0)
(0.0001905514144 -1.435781388e-05 0)
(0.0001272483314 -1.584290811e-05 0)
(7.090204323e-05 -1.777072366e-05 0)
(2.105446641e-05 -1.332909467e-05 0)
(-1.118114459e-05 -9.290186285e-05 0)
(5.358614616e-05 -0.000182939979 0)
(0.0001714670074 -0.0002179403469 0)
(0.0003063861307 -0.0002258226285 0)
(0.0004394667929 -0.0002209539656 0)
(0.0005613621382 -0.0002089079095 0)
(0.0006647704247 -0.0001914485523 0)
(0.0007433322623 -0.0001691963807 0)
(0.0007913845015 -0.0001426669443 0)
(0.0008041008125 -0.0001124392797 0)
(0.0007775494237 -7.907163903e-05 0)
(0.0007086399268 -4.302281517e-05 0)
(0.0005950243847 -4.671886258e-06 0)
(0.0004350148716 3.562902636e-05 0)
(0.0002276236974 7.747028044e-05 0)
(-2.730341448e-05 0.0001202674028 0)
(-0.0003289646142 0.0001632516437 0)
(-0.0006750544907 0.0002054549596 0)
(-0.001062127567 0.0002457885263 0)
(-0.00148515533 0.000283035895 0)
(-0.001937565454 0.0003159380578 0)
(-0.002411327051 0.0003433037431 0)
(-0.002897153274 0.0003640867354 0)
(-0.003384807962 0.0003774529419 0)
(-0.003863524998 0.0003828640724 0)
(-0.004322486314 0.0003801277953 0)
(-0.004751331598 0.0003694147977 0)
(-0.0051406519 0.0003512387452 0)
(-0.005482415435 0.0003263948298 0)
(-0.005770281943 0.000295876364 0)
(-0.00599978219 0.000260779513 0)
(-0.006168389783 0.0002222268988 0)
(-0.006275399862 0.0001812592481 0)
(-0.006321846039 0.00013879471 0)
(-0.006310148187 9.555710554e-05 0)
(-0.006243686918 5.208112451e-05 0)
(-0.006126624181 8.754588938e-06 0)
(-0.00596356043 -3.416762504e-05 0)
(-0.005759123509 -7.646573006e-05 0)
(-0.005517914117 -0.0001178784148 0)
(-0.005244434203 -0.000158026919 0)
(-0.00494311063 -0.0001963557639 0)
(-0.004618492594 -0.0002321383013 0)
(-0.00427520168 -0.0002645469361 0)
(-0.003918002776 -0.000292778571 0)
(-0.003551762473 -0.0003161644561 0)
(-0.003181350404 -0.0003342427252 0)
(-0.002811521657 -0.000346790332 0)
(-0.002446798869 -0.0003538235604 0)
(-0.002091370163 -0.0003555693709 0)
(-0.00174902491 -0.0003524087264 0)
(-0.001423108449 -0.0003448336892 0)
(-0.001116504478 -0.0003334055468 0)
(-0.0008316200039 -0.0003187186688 0)
(-0.0005703997694 -0.0003013649384 0)
(-0.0003343223297 -0.0002819022774 0)
(-0.0001244674124 -0.0002608513557 0)
(5.848393601e-05 -0.0002386791639 0)
(0.0002141617139 -0.000215788494 0)
(0.0003424589265 -0.0001925100063 0)
(0.0004434698764 -0.0001691033474 0)
(0.0005174335124 -0.0001457570379 0)
(0.0005646323295 -0.0001225990446 0)
(0.000585381058 -9.972120564e-05 0)
(0.0005799766082 -7.718206497e-05 0)
(0.0005486111878 -5.499567687e-05 0)
(0.0004914443947 -3.316883951e-05 0)
(0.0004085524305 -1.169768261e-05 0)
(0.0002999387657 9.420761197e-06 0)
(0.0001655386595 3.017805798e-05 0)
(5.321591039e-06 5.053016923e-05 0)
(-0.0001806941179 7.03916659e-05 0)
(-0.0003923671463 8.964676155e-05 0)
(-0.0006293109772 0.0001081548555 0)
(-0.0008908327114 0.0001257624308 0)
(-0.001175859423 0.0001422936247 0)
(-0.001482906942 0.0001575163677 0)
(-0.00180995003 0.0001710508772 0)
(-0.002154168221 0.000182326865 0)
(-0.002511732983 0.0001906463493 0)
(-0.002877732559 0.0001952502955 0)
(-0.003246177527 0.0001953722069 0)
(-0.003610080845 0.0001902986373 0)
(-0.003961611136 0.0001794071285 0)
(-0.004292287504 0.0001621922063 0)
(-0.004593205471 0.0001382937332 0)
(-0.004855295555 0.0001075297082 0)
(-0.005069620998 6.993993988e-05 0)
(-0.005227718243 2.583556577e-05 0)
(-0.005321984803 -2.414863061e-05 0)
(-0.005346109905 -7.900345209e-05 0)
(-0.005295456037 -0.0001373000421 0)
(-0.005167933293 -0.0001970508009 0)
(-0.004963843591 -0.0002557851192 0)
(-0.004686752847 -0.0003111307202 0)
(-0.004343129286 -0.000361088653 0)
(-0.00394153021 -0.0004040372799 0)
(-0.00349219492 -0.0004388031592 0)
(-0.003006441014 -0.0004646499993 0)
(-0.002496122474 -0.0004812619066 0)
(-0.001973109092 -0.0004887189823 0)
(-0.0014488057 -0.000487460979 0)
(-0.0009337325382 -0.0004782341865 0)
(-0.0004371860796 -0.0004620239375 0)
(3.300170519e-05 -0.0004399746538 0)
(0.0004705924408 -0.0004133073356 0)
(0.0008709654942 -0.0003832425438 0)
(0.001231026741 -0.0003509421777 0)
(0.001549153011 -0.0003175335215 0)
(0.001824966072 -0.0002839543514 0)
(0.002058983456 -0.0002507838731 0)
(0.002252542308 -0.0002185071979 0)
(0.002407421654 -0.0001875847623 0)
(0.00252582811 -0.000158365906 0)
(0.002610242383 -0.0001311022055 0)
(0.0026633057 -0.0001059587409 0)
(0.002687734044 -8.302454177e-05 0)
(0.002686246205 -6.232401345e-05 0)
(0.002661504942 -4.382696154e-05 0)
(0.002616073848 -2.746011058e-05 0)
(0.002552390517 -1.311411244e-05 0)
(0.002472691576 -6.484047819e-07 0)
(0.002379045077 1.009723804e-05 0)
(0.00227332413 1.929386527e-05 0)
(0.002157193326 2.711977014e-05 0)
(0.002032114602 3.374944518e-05 0)
(0.001899362089 3.93401371e-05 0)
(0.001760055825 4.401194092e-05 0)
(0.00161522084 4.782688899e-05 0)
(0.001465868286 5.077016058e-05 0)
(0.00131308847 5.274315496e-05 0)
(0.001158135011 5.358234887e-05 0)
(0.001002466066 5.310557289e-05 0)
(0.0008477047402 5.1181327e-05 0)
(0.0006955043259 4.778134731e-05 0)
(0.0005473692168 4.292948108e-05 0)
(0.0004046229269 3.642933591e-05 0)
(0.0002686196588 2.737557416e-05 0)
(0.0001436949341 1.373924649e-05 0)
(3.718436938e-05 -1.546457986e-06 0)
(-9.14633629e-06 -0.0001717057354 0)
(6.528470798e-05 -0.0003422078248 0)
(0.0001918856432 -0.0004100186018 0)
(0.0003346626183 -0.000424311226 0)
(0.0004726948507 -0.0004107289589 0)
(0.0005942257612 -0.0003796344615 0)
(0.0006892800567 -0.0003345475174 0)
(0.0007489118434 -0.0002770165067 0)
(0.0007651599747 -0.000208521785 0)
(0.0007313162949 -0.0001307598348 0)
(0.0006421201505 -4.543094617e-05 0)
(0.0004936982204 4.593597629e-05 0)
(0.0002834277751 0.0001420062853 0)
(9.893052318e-06 0.0002414624762 0)
(-0.0003270784281 0.0003427920108 0)
(-0.0007258790878 0.00044404272 0)
(-0.00118358479 0.0005429585033 0)
(-0.001695289789 0.0006368803709 0)
(-0.002254026462 0.0007228390525 0)
(-0.002850674441 0.0007976811463 0)
(-0.003474064918 0.000858301843 0)
(-0.00411122251 0.0009018870676 0)
(-0.004747774941 0.0009261417265 0)
(-0.005368520201 0.0009294947305 0)
(-0.005958114035 0.0009112732179 0)
(-0.006501819471 0.0008717935622 0)
(-0.006986255963 0.000812378555 0)
(-0.007400082757 0.0007352632407 0)
(-0.007734529263 0.0006434024248 0)
(-0.007983725945 0.0005402234699 0)
(-0.008144809241 0.0004293650641 0)
(-0.00821787305 0.0003144511413 0)
(-0.008205655013 0.0001987802977 0)
(-0.008113227427 8.511996366e-05 0)
(-0.007947372614 -2.436332539e-05 0)
(-0.007715895361 -0.0001281785979 0)
(-0.00742722095 -0.0002253141599 0)
(-0.007089947512 -0.0003153282305 0)
(-0.00671243548 -0.0003982423021 0)
(-0.006302344732 -0.000474241743 0)
(-0.005866546139 -0.0005434067803 0)
(-0.005411233024 -0.0006055419214 0)
(-0.004942080874 -0.0006601483791 0)
(-0.004464385039 -0.0007065352551 0)
(-0.003983130352 -0.000743986546 0)
(-0.003502992184 -0.0007719338327 0)
(-0.003028307537 -0.0007900659223 0)
(-0.002563054528 -0.0007983660445 0)
(-0.002110850366 -0.0007971128661 0)
(-0.001674968842 -0.0007868368765 0)
(-0.001258386018 -0.000768237627 0)
(-0.0008638000334 -0.000742137846 0)
(-0.000493673952 -0.0007094531615 0)
(-0.0001501770758 -0.0006711224635 0)
(0.0001647506974 -0.0006281061182 0)
(0.0004494239625 -0.000581367223 0)
(0.0007025769556 -0.0005318019586 0)
(0.000923271181 -0.0004802107646 0)
(0.00111083967 -0.0004272866438 0)
(0.001264879896 -0.0003735972276 0)
(0.001385182755 -0.0003195784071 0)
(0.001471666865 -0.0002655306788 0)
(0.001524283307 -0.0002116303572 0)
(0.001542993579 -0.0001579609349 0)
(0.001527649799 -0.0001045300097 0)
(0.001477966314 -5.127859397e-05 0)
(0.00139352502 1.86856185e-06 0)
(0.001273747938 5.500262108e-05 0)
(0.001117908671 0.000108194278 0)
(0.0009251747033 0.00016145899 0)
(0.0006946780446 0.0002147194329 0)
(0.0004256338139 0.0002677706628 0)
(0.0001173514524 0.000320257516 0)
(-0.0002302448466 0.0003716072161 0)
(-0.0006167297399 0.0004212009117 0)
(-0.001041017983 0.0004683947594 0)
(-0.001501261833 0.0005123283518 0)
(-0.00199464505 0.000551718971 0)
(-0.002516983933 0.0005848281959 0)
(-0.003062434555 0.0006096320244 0)
(-0.003623454328 0.0006239941259 0)
(-0.004190859192 0.0006258200314 0)
(-0.00475397352 0.0006132135388 0)
(-0.005300885263 0.0005845811716 0)
(-0.005818753742 0.0005387058392 0)
(-0.006294163198 0.0004748208017 0)
(-0.006713528335 0.0003926910459 0)
(-0.007063551238 0.000292709109 0)
(-0.007331735513 0.0001759994655 0)
(-0.0075069559 4.452286903e-05 0)
(-0.007580069122 -9.88274018e-05 0)
(-0.007544442875 -0.0002501449567 0)
(-0.007397056955 -0.0004044250964 0)
(-0.007138509082 -0.0005555537383 0)
(-0.006774055473 -0.0006974809202 0)
(-0.006312985736 -0.0008251977158 0)
(-0.005767552112 -0.0009347171202 0)
(-0.005152376789 -0.00102316919 0)
(-0.004483627457 -0.00108878978 0)
(-0.003778264182 -0.001130879123 0)
(-0.00305330616 -0.001149741303 0)
(-0.002325138051 -0.001146591376 0)
(-0.00160889113 -0.001123418989 0)
(-0.0009179332862 -0.001082812173 0)
(-0.000263500841 -0.001027750526 0)
(0.0003455089049 -0.0009613897457 0)
(0.000902571978 -0.0008868569111 0)
(0.001403373966 -0.0008070919758 0)
(0.001845920023 -0.000724807645 0)
(0.002229386437 -0.0006423900811 0)
(0.002555149984 -0.0005613571332 0)
(0.002825319449 -0.0004829638874 0)
(0.003042652189 -0.0004082378783 0)
(0.003210463039 -0.0003379092907 0)
(0.003332348406 -0.000272475155 0)
(0.003412047171 -0.0002122347379 0)
(0.003453331364 -0.0001573190785 0)
(0.003459918784 -0.0001077239245 0)
(0.003435404873 -6.333307958e-05 0)
(0.003383223585 -2.393947922e-05 0)
(0.003306576777 1.074357896e-05 0)
(0.003208432875 4.105847753e-05 0)
(0.003091506597 6.737909655e-05 0)
(0.002958239772 9.010396659e-05 0)
(0.002810800823 0.0001096425566 0)
(0.002651091187 0.0001263916684 0)
(0.002480770993 0.0001406991916 0)
(0.002301306519 0.0001528218241 0)
(0.002114049486 0.0001628748639 0)
(0.001920343035 0.0001707959674 0)
(0.001721639126 0.0001763381631 0)
(0.001519597087 0.000179123105 0)
(0.001316123826 0.0001787643992 0)
(0.001113307616 0.0001750434395 0)
(0.0009132320191 0.0001680465383 0)
(0.0007177436417 0.0001580633063 0)
(0.0005284639921 0.0001449182236 0)
(0.0003471059483 0.0001264507667 0)
(0.0001802960374 9.600797907e-05 0)
(4.174611676e-05 4.325947942e-05 0)
(-8.627949729e-06 -0.000253546059 0)
(6.453360777e-05 -0.0005021290462 0)
(0.0001852092048 -0.0005996573639 0)
(0.0003185860947 -0.0006171942302 0)
(0.000443738431 -0.0005907552271 0)
(0.0005481691981 -0.0005348042357 0)
(0.0006206545249 -0.0004543533159 0)
(0.0006508839133 -0.0003519443318 0)
(0.0006296619816 -0.0002303130037 0)
(0.0005493762111 -9.270311121e-05 0)
(0.000404311928 5.752237366e-05 0)
(0.0001905314615 0.0002172852917 0)
(-9.417359918e-05 0.0003837496143 0)
(-0.0004501605408 0.0005539756876 0)
(-0.0008758099891 0.0007246624216 0)
(-0.001367835569 0.0008921558339 0)
(-0.00192070647 0.001052114836 0)
(-0.002526519869 0.001199573565 0)
(-0.003174912951 0.001329170592 0)
(-0.003853118865 0.001435451983 0)
(-0.004546219644 0.001513268304 0)
(-0.00523759484 0.0015582008 0)
(-0.00590957001 0.001566968603 0)
(-0.006544225277 0.001537776289 0)
(-0.007124317834 0.001470575957 0)
(-0.007634219907 0.001367159433 0)
(-0.008060789341 0.001231115993 0)
(-0.008394092785 0.00106757569 0)
(-0.008627854029 0.0008827894205 0)
(-0.008759596378 0.0006836346534 0)
(-0.008790474492 0.0004771179876 0)
(-0.008724981648 0.0002699525542 0)
(-0.008570360525 6.799752663e-05 0)
(-0.008335875571 -0.0001240811432 0)
(-0.008031994802 -0.0003027237591 0)
(-0.00766985177 -0.0004656879687 0)
(-0.0072600917 -0.0006120500256 0)
(-0.006812809552 -0.0007418731432 0)
(-0.006337161701 -0.0008560456231 0)
(-0.005841107436 -0.0009558347859 0)
(-0.005331417419 -0.001042383391 0)
(-0.004813881952 -0.001116381466 0)
(-0.004293570085 -0.001177998102 0)
(-0.003774996676 -0.001227054206 0)
(-0.00326215633 -0.001263262601 0)
(-0.002758488159 -0.001286451741 0)
(-0.002266856109 -0.001296683043 0)
(-0.001789581515 -0.001294262479 0)
(-0.001328558533 -0.001279717902 0)
(-0.0008854242535 -0.001253741493 0)
(-0.000461769871 -0.001217105433 0)
(-5.923590939e-05 -0.001170644635 0)
(0.0003203401501 -0.001115292325 0)
(0.0006748367924 -0.00105208189 0)
(0.001002303452 -0.0009820844339 0)
(0.001300680815 -0.0009064408162 0)
(0.00156805602 -0.000826293437 0)
(0.001802749482 -0.0007427216274 0)
(0.002003370264 -0.0006566909487 0)
(0.002168820295 -0.0005690123646 0)
(0.002298247459 -0.0004803074715 0)
(0.002390973493 -0.0003909926448 0)
(0.002446371902 -0.0003012767201 0)
(0.002463824811 -0.0002111997107 0)
(0.002442568293 -0.0001206696793 0)
(0.002381643353 -2.948506787e-05 0)
(0.002279864884 6.259683299e-05 0)
(0.002135798409 0.000155837052 0)
(0.001947763571 0.0002504448271 0)
(0.001713900599 0.0003465148615 0)
(0.001432273927 0.0004439550713 0)
(0.00110103057 0.0005424127504 0)
(0.0007185985361 0.0006411748263 0)
(0.0002839011495 0.0007391269634 0)
(-0.0002034650986 0.0008348410871 0)
(-0.0007423191354 0.0009267512154 0)
(-0.001330801752 0.001013137623 0)
(-0.001965647502 0.001091309451 0)
(-0.002641543088 0.001157707897 0)
(-0.003350839989 0.001208358356 0)
(-0.004083628843 0.001239173413 0)
(-0.004827870498 0.001246219865 0)
(-0.005569611438 0.001225992921 0)
(-0.006293326764 0.001175595277 0)
(-0.006982310243 0.001092874094 0)
(-0.007619124972 0.0009765564142 0)
(-0.008186126863 0.0008263984451 0)
(-0.008666061802 0.0006433487658 0)
(-0.009042735361 0.0004297155879 0)
(-0.009301742846 0.0001893255848 0)
(-0.009431238714 -7.234535398e-05 0)
(-0.00942259195 -0.000348069232 0)
(-0.009271655414 -0.0006287610841 0)
(-0.008979129467 -0.0009033808485 0)
(-0.008551392788 -0.001160996177 0)
(-0.008000084521 -0.001392728528 0)
(-0.007340442639 -0.00159150405 0)
(-0.006590733941 -0.001752213482 0)
(-0.005771266421 -0.001871696299 0)
(-0.004903491865 -0.001948683419 0)
(-0.004009097251 -0.001983712638 0)
(-0.003109105618 -0.001978980463 0)
(-0.002223040354 -0.001938113218 0)
(-0.001368208782 -0.001865852285 0)
(-0.0005591627367 -0.001767675512 0)
(0.0001926245308 -0.001649392076 0)
(0.0008788362178 -0.00151674938 0)
(0.001494131168 -0.001375088705 0)
(0.002036166089 -0.001229255317 0)
(0.002504078686 -0.001083662881 0)
(0.002900322771 -0.000941184733 0)
(0.003228009481 -0.0008040552603 0)
(0.003491098096 -0.0006739487471 0)
(0.003694155355 -0.0005519979528 0)
(0.003841967713 -0.0004389196687 0)
(0.003939382957 -0.000335092039 0)
(0.003991182683 -0.000240621478 0)
(0.004001988756 -0.0001554004431 0)
(0.003976199157 -7.915154763e-05 0)
(0.003917952905 -1.145637971e-05 0)
(0.003831063882 4.821956583e-05 0)
(0.003719042848 0.0001004829838 0)
(0.003585065887 0.0001459877592 0)
(0.003431973746 0.0001854218774 0)
(0.003262275212 0.0002194837381 0)
(0.003078158925 0.0002488415152 0)
(0.002881527392 0.0002740748282 0)
(0.00267405679 0.0002956013033 0)
(0.002457288592 0.0003135990442 0)
(0.002232750183 0.0003279488638 0)
(0.002002085183 0.0003382321801 0)
(0.001767164292 0.0003438273661 0)
(0.001530127186 0.0003441232684 0)
(0.001293315128 0.0003388126077 0)
(0.001059089038 0.0003281059307 0)
(0.000829630228 0.0003125164781 0)
(0.000607087635 0.0002916231354 0)
(0.0003941337647 0.0002610771512 0)
(0.000199989752 0.0002072188458 0)
(4.348532686e-05 0.000101861964 0)
(-8.743523593e-06 -0.0003333711135 0)
(6.004250007e-05 -0.0006548050129 0)
(0.0001717306284 -0.0007774965312 0)
(0.0002925682991 -0.0007945192015 0)
(0.000402152961 -0.0007516453418 0)
(0.0004880163171 -0.000666827281 0)
(0.0005386184688 -0.0005462572968 0)
(0.0005432173773 -0.0003934421297 0)
(0.0004922616065 -0.0002125564315 0)
(0.0003780717539 -8.72094889e-06 0)
(0.0001951007369 0.0002126743741 0)
(-6.002245433e-05 0.0004465512276 0)
(-0.0003884532533 0.0006880003057 0)
(-0.0007888556435 0.0009318954726 0)
(-0.0012580107 0.001173012757 0)
(-0.001790239813 0.001405347457 0)
(-0.002377329475 0.001622042034 0)
(-0.003008439566 0.001815535672 0)
(-0.003670138392 0.001977917972 0)
(-0.004346631764 0.002101436653 0)
(-0.005020217915 0.002179108058 0)
(-0.005671973102 0.002205353141 0)
(-0.006282651185 0.002176594207 0)
(-0.006833719162 0.002091717246 0)
(-0.007308479042 0.00195238837 0)
(-0.007693116739 0.001763060955 0)
(-0.007977585442 0.001530792739 0)
(-0.008156224809 0.001264698825 0)
(-0.008227931631 0.0009751953382 0)
(-0.008195924901 0.0006731637406 0)
(-0.008067134887 0.000369136377 0)
(-0.007851556055 7.27283061e-05 0)
(-0.007561143093 -0.0002079713347 0)
(-0.007208906639 -0.0004668582636 0)
(-0.006808410226 -0.0007000350199 0)
(-0.006370668904 -0.0009061653185 0)
(-0.005905576338 -0.001085264972 0)
(-0.005421863994 -0.001238463175 0)
(-0.0049269262 -0.001368020288 0)
(-0.00442670172 -0.00147665793 0)
(-0.003925872683 -0.001566811841 0)
(-0.003428303697 -0.00164016231 0)
(-0.002937427035 -0.001697593273 0)
(-0.002456354768 -0.00173951667 0)
(-0.001987747641 -0.0017662361 0)
(-0.001533523362 -0.001778196202 0)
(-0.001094758811 -0.001776055776 0)
(-0.0006716766825 -0.001760595237 0)
(-0.0002638934335 -0.001732576562 0)
(0.0001292652348 -0.001692622045 0)
(0.0005079447771 -0.001641247255 0)
(0.0008720809013 -0.001578840903 0)
(0.001220691404 -0.001505804369 0)
(0.001551970378 -0.001422696945 0)
(0.001863437815 -0.001330297278 0)
(0.002152166628 -0.001229609953 0)
(0.002415082267 -0.001121830649 0)
(0.002649218066 -0.00100824564 0)
(0.00285189682 -0.0008901091109 0)
(0.003020819271 -0.0007685342787 0)
(0.003154056496 -0.0006444004486 0)
(0.003249983011 -0.000518301195 0)
(0.003307123723 -0.0003905161392 0)
(0.003324067474 -0.0002610427011 0)
(0.003299262354 -0.0001296560876 0)
(0.003230905818 4.050724295e-06 0)
(0.00311689141 0.0001405765268 0)
(0.002954767378 0.0002804461107 0)
(0.002741722946 0.0004240988237 0)
(0.002474677483 0.0005717747074 0)
(0.002150419883 0.0007233876817 0)
(0.001765822795 0.0008783961889 0)
(0.001318123025 0.001035673595 0)
(0.0008052779474 0.001193403638 0)
(0.0002261654035 0.001349091072 0)
(-0.0004191688101 0.001499937244 0)
(-0.001128317471 0.001642844436 0)
(-0.001897984748 0.001773324998 0)
(-0.002721898342 0.00188529343 0)
(-0.003590660179 0.001972194145 0)
(-0.004492119272 0.002027457056 0)
(-0.005411550458 0.002044845935 0)
(-0.006331894442 0.002018848693 0)
(-0.007234157126 0.001944929273 0)
(-0.008097845492 0.001819740188 0)
(-0.008901490075 0.001641345918 0)
(-0.00962328161 0.00140946643 0)
(-0.01024181538 0.001125731972 0)
(-0.01073693106 0.0007939288592 0)
(-0.01109062747 0.0004202114861 0)
(-0.0112880086 1.326116643e-05 0)
(-0.01131806736 -0.000415605998 0)
(-0.0111750969 -0.0008523188714 0)
(-0.01085955104 -0.00127969446 0)
(-0.01037827709 -0.001680744077 0)
(-0.00974494722 -0.002041900595 0)
(-0.008977351961 -0.002352304963 0)
(-0.008097109324 -0.002604010417 0)
(-0.00712856397 -0.002791971475 0)
(-0.006097786952 -0.002914007842 0)
(-0.005031495328 -0.002970738641 0)
(-0.003955911474 -0.002965415468 0)
(-0.002895642547 -0.002903608258 0)
(-0.001872669932 -0.002792736502 0)
(-0.0009055463658 -0.002641472893 0)
(-8.872227363e-06 -0.002459079732 0)
(0.0008068840096 -0.002254742946 0)
(0.001535214676 -0.002036925432 0)
(0.002173531361 -0.001813210863 0)
(0.002721043606 -0.001590779189 0)
(0.003181747857 -0.001374311738 0)
(0.003560246098 -0.001167169443 0)
(0.003862166787 -0.0009717167947 0)
(0.004093739183 -0.0007894464493 0)
(0.004261280069 -0.000621193314 0)
(0.004371003784 -0.0004672891686 0)
(0.004428877333 -0.0003276856536 0)
(0.004440531308 -0.0002020481984 0)
(0.004411210637 -8.982481017e-05 0)
(0.004345753386 9.717262912e-06 0)
(0.004248551597 9.744445053e-05 0)
(0.004123598308 0.0001743021144 0)
(0.003974460431 0.0002412885227 0)
(0.003804301107 0.00029943838 0)
(0.003615890069 0.0003497882179 0)
(0.003411624484 0.0003933194993 0)
(0.003193572834 0.0004308768813 0)
(0.002963543853 0.0004630644529 0)
(0.002723188109 0.0004901373707 0)
(0.002474128384 0.0005119235141 0)
(0.002218101718 0.0005278267684 0)
(0.001957080759 0.0005369674965 0)
(0.00169333166 0.0005384832976 0)
(0.001429368427 0.0005319311472 0)
(0.001167809511 0.0005175523152 0)
(0.0009112530565 0.0004958845855 0)
(0.0006625738373 0.0004658385019 0)
(0.0004256652475 0.0004200528757 0)
(0.0002120822704 0.0003364307731 0)
(4.425346285e-05 0.0001676986221 0)
(-9.04936041e-06 -0.000410516208 0)
(5.567585815e-05 -0.0008004495886 0)
(0.0001600292103 -0.0009447328537 0)
(0.0002710010884 -0.0009582962079 0)
(0.0003687588351 -0.0008964535361 0)
(0.0004412277723 -0.0007803824218 0)
(0.0004771533082 -0.0006173063724 0)
(0.0004660465956 -0.0004116994501 0)
(0.0003987205125 -0.0001693159496 0)
(0.0002680132711 0.0001026019322 0)
(6.916881306e-05 0.0003963195211 0)
(-0.000200083947 0.0007043462467 0)
(-0.0005392410404 0.001019181765 0)
(-0.0009453017896 0.001333421832 0)
(-0.001412768248 0.001639309616 0)
(-0.001933390584 0.001928174506 0)
(-0.002496169989 0.002190424737 0)
(-0.003087389092 0.002415811753 0)
(-0.003690818073 0.002593962866 0)
(-0.004288156523 0.002715124 0)
(-0.004859738452 0.00277101506 0)
(-0.005385487206 0.002755688182 0)
(-0.005846096787 0.002666310375 0)
(-0.006224293329 0.002503682075 0)
(-0.006506148224 0.002272556078 0)
(-0.00668217605 0.001981408352 0)
(-0.006748145174 0.001642038854 0)
(-0.006705432793 0.001268534278 0)
(-0.006560705423 0.0008760531509 0)
(-0.006325170513 0.0004794897982 0)
(-0.006013286292 9.237929324e-05 0)
(-0.005641307143 -0.0002732809526 0)
(-0.005226445803 -0.0006080242488 0)
(-0.004785792635 -0.0009063577404 0)
(-0.004330828454 -0.00116701679 0)
(-0.0038705967 -0.001390722221 0)
(-0.003411486893 -0.001579261464 0)
(-0.002958364624 -0.001735150093 0)
(-0.002514509265 -0.00186209337 0)
(-0.002081859276 -0.001964209761 0)
(-0.001661467719 -0.002044978545 0)
(-0.00125429723 -0.002106675933 0)
(-0.0008617613607 -0.002150526222 0)
(-0.000485637354 -0.002177312723 0)
(-0.0001276021595 -0.002188018354 0)
(0.0002117106767 -0.002184050253 0)
(0.0005330155778 -0.002167131641 0)
(0.0008387245297 -0.002138923601 0)
(0.001132305247 -0.002100592847 0)
(0.001417642497 -0.002052583489 0)
(0.001698148762 -0.001994659775 0)
(0.001976027597 -0.001926085998 0)
(0.002251775629 -0.001845944848 0)
(0.002524069178 -0.001753532047 0)
(0.002789953818 -0.001648623246 0)
(0.003045269882 -0.001531595412 0)
(0.003285187841 -0.001403401462 0)
(0.003504728665 -0.001265419015 0)
(0.003699172319 -0.001119219881 0)
(0.003864303609 -0.0009663381616 0)
(0.003996492578 -0.000808070894 0)
(0.00409264554 -0.0006453383085 0)
(0.004150021421 -0.0004786072181 0)
(0.004166089605 -0.0003078901058 0)
(0.004138239039 -0.0001328274842 0)
(0.004063589479 4.723598524e-05 0)
(0.003938892119 0.0002331432781 0)
(0.003760455639 0.0004257841571 0)
(0.003524107379 0.0006259338765 0)
(0.003225298004 0.0008340605741 0)
(0.002859286031 0.001050120479 0)
(0.002421420803 0.001273353483 0)
(0.001907503536 0.001502097549 0)
(0.001314217297 0.001733662126 0)
(0.0006397076229 0.001964306502 0)
(-0.0001172091615 0.002189745152 0)
(-0.0009546491437 0.002405087896 0)
(-0.001868911908 0.002603318738 0)
(-0.002853111085 0.002775134366 0)
(-0.003896094334 0.002910744358 0)
(-0.004983522846 0.003000553195 0)
(-0.00609802566 0.003035521266 0)
(-0.0072193596 0.003007651826 0)
(-0.00832482259 0.002910316359 0)
(-0.009389705009 0.002738575815 0)
(-0.01038789262 0.002489541536 0)
(-0.01129265445 0.002162762417 0)
(-0.01207759208 0.001760610424 0)
(-0.01271771672 0.001288622185 0)
(-0.01319060343 0.000755762074 0)
(-0.01347755997 0.0001745946863 0)
(-0.01356457628 -0.0004386446177 0)
(-0.01344364098 -0.001064013732 0)
(-0.01311482273 -0.001676899734 0)
(-0.01258445381 -0.002252976446 0)
(-0.01186793705 -0.002773100692 0)
(-0.01098521861 -0.003221787516 0)
(-0.009961176066 -0.003587424461 0)
(-0.008824452624 -0.003862312367 0)
(-0.007606387306 -0.004042728609 0)
(-0.006339745474 -0.00412897083 0)
(-0.005057265926 -0.004125242542 0)
(-0.003790149878 -0.004039291923 0)
(-0.002566624515 -0.003881783305 0)
(-0.001410728599 -0.003665432037 0)
(-0.0003414524809 -0.003403995718 0)
(0.0006276665485 -0.003111218531 0)
(0.001488375384 -0.002799752241 0)
(0.00223793671 -0.002480680792 0)
(0.002875539001 -0.002164916262 0)