/*--------------------------------*- C++ -*----------------------------------*\
| =========                 |                                                 |
| \\      /  F ield         | OpenFOAM: The Open Source CFD Toolbox           |
|  \\    /   O peration     | Version:  5.x                                   |
|   \\  /    A nd           | Web:      www.OpenFOAM.org                      |
|    \\/     M anipulation  |                                                 |
\*---------------------------------------------------------------------------*/
FoamFile
{
    version     2.0;
    format      ascii;
    class       volScalarField;
    location    "0.002";
    object      srom;
}
// * * * * * * * * * * * * * * * * * * * * * * * * * * * * * * * * * * * * * //

dimensions      [0 0 0 0 0 0 0];

internalField   nonuniform List<scalar> 
12225
(
3.91365e-09
-2.52568e-07
-2.39181e-05
-0.000778866
-0.012084
-0.0411898
-0.0480854
-0.0206397
0.0381987
0.125671
0.23381
0.35286
0.484209
0.628032
0.752547
0.84636
0.903187
0.929697
3.6435e-09
-2.40104e-07
-2.21381e-05
-0.000706203
-0.0108259
-0.0394786
-0.0489545
-0.0263506
0.026562
0.108742
0.21006
0.324089
0.450476
0.588697
0.7175
0.817917
0.884821
0.926049
3.21395e-09
-2.44167e-07
-2.14965e-05
-0.000677327
-0.0103061
-0.0388057
-0.0497202
-0.0303783
0.0183918
0.0958818
0.191481
0.301524
0.422933
0.556814
0.687455
0.791455
0.866901
0.914816
2.74426e-09
-2.56982e-07
-2.14753e-05
-0.000671023
-0.0101758
-0.0386831
-0.0502834
-0.0327854
0.0135479
0.0877053
0.179399
0.286758
0.404383
0.535979
0.666413
0.771986
0.852587
0.904064
2.38648e-09
-2.68653e-07
-2.1606e-05
-0.000671438
-0.0101665
-0.0387171
-0.0506308
-0.0340898
0.0108512
0.082966
0.172124
0.277685
0.392661
0.523056
0.652463
0.758753
0.841748
0.895798
2.18118e-09
-2.75829e-07
-2.17194e-05
-0.000673019
-0.0101829
-0.0387716
-0.0508042
-0.0346733
0.00957114
0.0805985
0.168283
0.272733
0.385997
0.515644
0.644077
0.75062
0.83434
0.890016
2.09592e-09
-2.79058e-07
-2.17862e-05
-0.00067434
-0.0102005
-0.0388109
-0.050869
-0.0348563
0.00911663
0.0796685
0.16663
0.270474
0.382786
0.511973
0.639705
0.746231
0.830039
0.886428
2.07974e-09
-2.79941e-07
-2.18197e-05
-0.000675304
-0.0102154
-0.0388359
-0.0508795
-0.0348519
0.00907282
0.0795013
0.166208
0.269791
0.381685
0.510631
0.637973
0.744399
0.828081
0.884641
2.09374e-09
-2.79768e-07
-2.18364e-05
-0.000676022
-0.0102277
-0.038853
-0.0508682
-0.0347767
0.00919793
0.0796769
0.16638
0.269913
0.38172
0.510594
0.637781
0.74411
0.82765
0.884136
2.11702e-09
-2.79252e-07
-2.18462e-05
-0.000676618
-0.0102382
-0.0388667
-0.0508505
-0.0346828
0.00937972
0.0799739
0.16679
0.270383
0.382279
0.511188
0.638372
0.744638
0.828078
0.884399
2.14044e-09
-2.787e-07
-2.18536e-05
-0.000677136
-0.0102476
-0.0388787
-0.0508323
-0.0345885
0.00956872
0.0802976
0.167269
0.270969
0.383033
0.512034
0.639298
0.745531
0.828912
0.885061
2.15971e-09
-2.78231e-07
-2.18589e-05
-0.000677542
-0.0102552
-0.038888
-0.0508166
-0.0345073
0.0097354
0.0805876
0.16771
0.271524
0.383768
0.512878
0.640248
0.746472
0.829824
0.885808
2.17658e-09
-2.77817e-07
-2.18636e-05
-0.000677911
-0.0102621
-0.0388965
-0.0508018
-0.0344313
0.00989263
0.0808652
0.168136
0.272067
0.384497
0.513724
0.64121
0.747433
0.830765
0.886596
2.19327e-09
-2.77408e-07
-2.18681e-05
-0.00067828
-0.0102691
-0.0389054
-0.0507862
-0.0343508
0.0100619
0.0811663
0.168604
0.272667
0.385313
0.514674
0.6423
0.748528
0.831844
0.887499
2.20914e-09
-2.77014e-07
-2.18725e-05
-0.000678643
-0.0102761
-0.0389141
-0.0507698
-0.0342663
0.0102407
0.0814878
0.169109
0.273321
0.386207
0.515726
0.643512
0.749745
0.833044
0.888504
2.22414e-09
-2.76641e-07
-2.18768e-05
-0.000678995
-0.0102829
-0.038923
-0.0507529
-0.0341792
0.0104278
0.0818278
0.169648
0.274025
0.387176
0.516874
0.644838
0.751083
0.834362
0.889603
2.23784e-09
-2.76294e-07
-2.18802e-05
-0.000679309
-0.0102892
-0.0389308
-0.0507364
-0.0340922
0.010618
0.0821775
0.170209
0.274766
0.388204
0.5181
0.646263
0.752528
0.835776
0.890774
2.2501e-09
-2.75983e-07
-2.1883e-05
-0.000679592
-0.010295
-0.0389384
-0.0507199
-0.0340069
0.0108068
0.0825294
0.170778
0.275526
0.389265
0.519374
0.647747
0.754038
0.837248
0.891992
2.25982e-09
-2.75735e-07
-2.18855e-05
-0.000679819
-0.0102996
-0.0389444
-0.0507055
-0.0339313
0.0109774
0.0828519
0.17131
0.276244
0.390279
0.520605
0.649188
0.755508
0.83868
0.893173
2.26205e-09
-2.75662e-07
-2.18852e-05
-0.000679862
-0.0103008
-0.0389458
-0.0506993
-0.0338968
0.0110615
0.0830207
0.171601
0.276655
0.390879
0.521355
0.650082
0.756435
0.839579
0.893924
2.25809e-09
-2.75751e-07
-2.18836e-05
-0.00067977
-0.0102992
-0.038944
-0.0506996
-0.0338979
0.0110689
0.0830508
0.171674
0.276781
0.391088
0.521644
0.650446
0.756828
0.83997
0.894252
2.24772e-09
-2.75997e-07
-2.18805e-05
-0.000679539
-0.0102951
-0.038939
-0.0507058
-0.0339275
0.0110176
0.0829766
0.171586
0.276704
0.391024
0.521619
0.650458
0.756875
0.840038
0.894307
2.23065e-09
-2.76405e-07
-2.18754e-05
-0.000679178
-0.0102886
-0.038931
-0.0507171
-0.0339833
0.0109126
0.0828102
0.171358
0.276454
0.390735
0.521342
0.650192
0.756656
0.839859
0.89418
2.20711e-09
-2.76958e-07
-2.1868e-05
-0.000678669
-0.0102796
-0.0389198
-0.0507325
-0.0340613
0.0107646
0.0825745
0.171039
0.276105
0.390336
0.520964
0.649846
0.756391
0.839685
0.894095
2.18503e-09
-2.77385e-07
-2.18541e-05
-0.00067797
-0.0102675
-0.0389037
-0.0507468
-0.0341436
0.0106226
0.0823733
0.170818
0.275931
0.390238
0.520972
0.650027
0.756714
0.840171
0.894641
2.19855e-09
-2.76552e-07
-2.18187e-05
-0.000676923
-0.0102512
-0.0388769
-0.0507353
-0.0341432
0.0106823
0.082581
0.171326
0.276756
0.391574
0.522641
0.652205
0.759073
0.842706
0.896938
2.33013e-09
-2.71794e-07
-2.17338e-05
-0.000675505
-0.0102337
-0.0388334
-0.0506264
-0.0337882
0.0115054
0.084173
0.174025
0.280362
0.396585
0.528392
0.658862
0.765731
0.849138
0.90215
2.67073e-09
-2.60583e-07
-2.15991e-05
-0.000674729
-0.0102367
-0.0387923
-0.0503038
-0.0325824
0.0140334
0.0886651
0.181007
0.289182
0.408066
0.54118
0.672826
0.779138
0.860769
0.910595
3.13064e-09
-2.50105e-07
-2.17814e-05
-0.000686708
-0.0104652
-0.0390578
-0.0497057
-0.0297492
0.019735
0.0982234
0.195055
0.306322
0.429635
0.565683
0.697487
0.802024
0.878114
0.92213
3.43702e-09
-2.5809e-07
-2.32021e-05
-0.000744773
-0.0114763
-0.0404891
-0.0490062
-0.0247252
0.0299001
0.11384
0.2173
0.333016
0.462117
0.60383
0.732736
0.832751
0.898828
0.934293
-0.000403007
-0.000383608
-0.000350546
-0.000313436
-0.000277543
-0.000245376
-0.000217635
-0.000193628
-0.000172909
-0.000155479
-0.000141889
-0.000131364
-0.000122752
-0.000116513
-0.000113231
-0.000114658
-0.000120783
-0.000127574
-0.000123285
-9.2839e-05
-3.76736e-05
3.40267e-05
0.000108072
0.000147938
7.46339e-05
-0.000159051
-0.000466506
-0.000704085
-0.00084111
-0.000903304
-0.000907257
-0.000876109
-0.000821196
-0.000709956
-0.000524658
-0.000262734
4.75025e-06
0.000203996
0.000319992
0.000375043
0.000392269
0.000378637
0.000336258
0.000278736
0.000219482
0.000171688
0.000145374
0.000144469
0.000167488
0.00021036
0.000262798
0.000315365
0.000350819
0.000355373
0.000330533
0.000284014
0.00022732
0.000171147
0.000124984
9.23189e-05
7.14924e-05
5.51526e-05
3.76846e-05
2.21556e-05
1.73201e-05
2.46709e-05
4.2598e-05
6.91032e-05
9.34178e-05
9.78263e-05
9.6734e-05
9.75909e-05
9.86906e-05
9.76988e-05
9.17566e-05
7.81143e-05
5.69848e-05
3.20671e-05
1.00002e-05
-5.38547e-06
-1.15427e-05
-7.22064e-06
3.25119e-06
6.96608e-06
3.72495e-06
-3.54438e-06
-1.33167e-05
-2.44978e-05
-3.64271e-05
-4.90689e-05
-6.20924e-05
-7.4931e-05
-8.68437e-05
-9.72851e-05
-0.00010615
-0.000113419
-0.000118943
-0.000123441
-0.000128156
-0.000134171
-0.000142201
-0.000151158
-0.000160063
-0.000169118
-0.000178264
-0.000187339
-0.000196061
-0.000204208
-0.000211583
-0.000218454
-0.00022492
-0.000231199
-0.000237592
-0.000244033
-0.000249766
-0.000253855
-0.000256739
-0.00026417
-0.000275914
-0.000287576
-0.000299075
-0.000313832
-0.000329279
-0.000339426
-0.000345433
-0.00034861
-0.000349479
-0.000348571
-0.000346757
-0.000344383
-0.000341824
-0.000339403
-0.000336961
-0.00033448
-0.000331806
-0.000329097
-0.000326346
-0.000323778
-0.000321289
-0.000319024
-0.000316841
-0.000314549
-0.000311799
-0.000308262
-0.000303633
-0.000297599
-0.000289906
-0.000280414
-0.000269189
-0.000256677
-0.000243559
-0.000231037
-0.000220696
-0.000214686
-0.000215566
-0.000226321
-0.000249785
-0.000288534
-0.000344528
-0.000418647
-0.000510924
-0.000619815
-0.000741388
-0.000869421
-0.000996464
-0.00111429
-0.00120818
-0.00124912
-0.00120148
-0.0010395
-0.000774104
-0.000473961
-0.00022829
-7.01583e-05
2.65118e-05
9.0513e-05
0.000135716
0.000169827
0.000205147
0.000250197
-0.000339445
-0.000309838
-0.000261877
-0.000209809
-0.000161192
-0.000117508
-8.01822e-05
-4.90625e-05
-2.41541e-05
-8.05012e-06
-3.20201e-07
2.41966e-06
5.97684e-06
8.87597e-06
1.53129e-05
2.16408e-05
2.62042e-05
4.45687e-05
9.52336e-05
0.000185677
0.000301944
0.000385914
0.000364084
0.000227713
1.74671e-05
-0.000320648
-0.000687888
-0.000994047
-0.00119412
-0.00126168
-0.00120826
-0.00105062
-0.000763843
-0.00035315
8.87333e-05
0.00049596
0.000818013
0.00100037
0.00105913
0.00102329
0.000910645
0.00072707
0.000487979
0.000225909
-1.97602e-05
-0.000209626
-0.000313403
-0.000314279
-0.00022883
-9.28837e-05
4.78e-05
0.000171902
0.000262173
0.000306882
0.000308645
0.000279191
0.000230082
0.000174462
0.00012641
8.66327e-05
5.52237e-05
2.58337e-05
-3.30494e-06
-2.37949e-05
-2.91065e-05
-1.95423e-05
6.98766e-07
3.03225e-05
5.82141e-05
7.81407e-05
9.49317e-05
0.000113307
0.000130554
0.000143701
0.000149092
0.00014427
0.000128693
0.000104218
7.63769e-05
5.42997e-05
4.37094e-05
4.31129e-05
4.29237e-05
3.77938e-05
2.93026e-05
1.89706e-05
7.63696e-06
-3.58374e-06
-1.4539e-05
-2.53582e-05
-3.59848e-05
-4.58989e-05
-5.42974e-05
-6.09267e-05
-6.65339e-05
-7.17118e-05
-7.74769e-05
-8.43741e-05
-9.25049e-05
-0.000102394
-0.000113253
-0.000124357
-0.000135165
-0.000145972
-0.000156714
-0.000167308
-0.00017729
-0.000186517
-0.000194823
-0.000202405
-0.00020965
-0.000216903
-0.000224705
-0.000233268
-0.000241986
-0.000250171
-0.000257334
-0.000266001
-0.000276972
-0.000287953
-0.000299458
-0.000313878
-0.000326259
-0.000334423
-0.000339694
-0.000342949
-0.000344112
-0.000343526
-0.00034157
-0.000338426
-0.000334353
-0.000329789
-0.000324615
-0.000318819
-0.000312455
-0.000305657
-0.000298652
-0.000291797
-0.000285408
-0.000280057
-0.000276051
-0.000273167
-0.000271021
-0.000268841
-0.000265686
-0.000260569
-0.000252608
-0.000240702
-0.000224289
-0.000203381
-0.0001787
-0.000151787
-0.000125225
-0.000102306
-8.72414e-05
-8.44167e-05
-9.84462e-05
-0.00013347
-0.000192261
-0.000275903
-0.000383551
-0.000512214
-0.000656372
-0.000808328
-0.000960142
-0.001103
-0.0012217
-0.00129055
-0.00128245
-0.00118115
-0.000991173
-0.000748218
-0.000506117
-0.000306121
-0.000156185
-4.90564e-05
2.95844e-05
9.41075e-05
0.000159426
0.000230889
-0.000248501
-0.000223115
-0.000185255
-0.000138967
-8.80294e-05
-3.89346e-05
4.29708e-06
3.63585e-05
5.09565e-05
4.66144e-05
2.96773e-05
8.53123e-06
-5.66357e-06
-3.33479e-06
2.71121e-05
8.20775e-05
0.000164618
0.000290499
0.000448368
0.000606892
0.000720115
0.000727235
0.000567914
0.000248004
-0.000197404
-0.000723178
-0.00122202
-0.00158598
-0.00176471
-0.00171549
-0.00141314
-0.000883077
-0.000226097
0.000469505
0.00110813
0.00157497
0.00180359
0.00183126
0.00169649
0.001427
0.00104397
0.000581405
8.48746e-05
-0.000388441
-0.000760739
-0.000962904
-0.000948029
-0.000728704
-0.000395836
-4.6713e-05
0.000243323
0.000455557
0.000594444
0.000661629
0.000659557
0.000598044
0.000504864
0.000411148
0.000313861
0.000213979
0.000115056
2.06219e-05
-5.71377e-05
-9.49883e-05
-9.36947e-05
-6.44787e-05
-2.33859e-05
2.18754e-05
6.40161e-05
9.92297e-05
0.000133331
0.000169065
0.000201013
0.000226611
0.00024135
0.000241383
0.000224807
0.000191715
0.000152334
0.000122962
0.000104809
9.37911e-05
8.19919e-05
7.03641e-05
5.94561e-05
4.90467e-05
3.90352e-05
3.01304e-05
2.20593e-05
1.47521e-05
7.80041e-06
1.53816e-06
-3.48424e-06
-7.55669e-06
-1.19713e-05
-1.77412e-05
-2.53428e-05
-3.57175e-05
-4.85557e-05
-6.24003e-05
-7.62953e-05
-8.97634e-05
-0.000102504
-0.000114666
-0.00012654
-0.000137917
-0.000148511
-0.000158268
-0.000167137
-0.000175528
-0.000184177
-0.000193624
-0.000204289
-0.000216667
-0.000230096
-0.000243579
-0.000255667
-0.000267076
-0.000279024
-0.000291506
-0.000304975
-0.000318979
-0.000329826
-0.000337646
-0.000342538
-0.000344652
-0.000344715
-0.000342415
-0.000338169
-0.000331765
-0.000323852
-0.000314661
-0.000304159
-0.000292327
-0.000278983
-0.000264251
-0.00024826
-0.000231697
-0.000215508
-0.000201294
-0.000190481
-0.000183866
-0.000181359
-0.000181635
-0.000183041
-0.000183404
-0.000179933
-0.000169591
-0.000149694
-0.000118586
-7.6292e-05
-2.47556e-05
3.19311e-05
8.79614e-05
0.000135996
0.000167906
0.000175677
0.000152273
9.2877e-05
-4.63146e-06
-0.000138978
-0.000305915
-0.000497376
-0.000701861
-0.000907109
-0.00110046
-0.00126484
-0.00137841
-0.00141991
-0.00137905
-0.00126147
-0.0010867
-0.000881251
-0.000673215
-0.000482002
-0.000317611
-0.000177733
-5.63362e-05
5.72894e-05
0.000171049
-0.000174393
-0.000161094
-0.000125475
-7.48775e-05
-2.26768e-05
2.04351e-05
4.78051e-05
5.55462e-05
4.17378e-05
1.41201e-06
-6.414e-05
-0.000133084
-0.000181273
-0.000196049
-0.000144277
-1.13607e-05
0.000206955
0.00049166
0.000785491
0.0010094
0.00108539
0.000955131
0.000598018
4.54222e-05
-0.000614967
-0.00127422
-0.00182359
-0.00215866
-0.00220863
-0.0019397
-0.00138454
-0.000651186
0.000159528
0.00092909
0.00154367
0.00191135
0.0020238
0.00192598
0.00165095
0.00124552
0.000740511
0.000182305
-0.000359385
-0.000863954
-0.00124931
-0.00140256
-0.00125119
-0.000839835
-0.000311578
0.000188428
0.000534573
0.000775043
0.00094636
0.00104538
0.00106348
0.00101356
0.000903409
0.000744964
0.00057962
0.000435319
0.000287309
0.000133359
-9.60713e-06
-8.87366e-05
-9.93658e-05
-5.98255e-05
7.96095e-06
8.04472e-05
0.00013574
0.000171009
0.000200772
0.000231908
0.000262151
0.000288266
0.000305667
0.000308504
0.000289722
0.000245426
0.000199483
0.000163067
0.000137356
0.000116559
9.88119e-05
8.63119e-05
7.74356e-05
7.0644e-05
6.50586e-05
6.06039e-05
5.69532e-05
5.40974e-05
5.14536e-05
4.89618e-05
4.65475e-05
4.37431e-05
3.96304e-05
3.28641e-05
2.19135e-05
7.01084e-06
-9.83755e-06
-2.68778e-05
-4.33447e-05
-5.88492e-05
-7.34535e-05
-8.73018e-05
-0.000100282
-0.000112144
-0.000122638
-0.000131802
-0.000139939
-0.000148153
-0.000157649
-0.000168977
-0.000182408
-0.00019814
-0.000215924
-0.000234429
-0.000251628
-0.000267171
-0.000282836
-0.000299713
-0.000316465
-0.000332217
-0.000344848
-0.000354132
-0.00035982
-0.00036179
-0.000358825
-0.000352651
-0.000344208
-0.000333677
-0.000321462
-0.00030772
-0.000292423
-0.000274771
-0.000254336
-0.000230376
-0.000202642
-0.000171625
-0.00013921
-0.000108196
-8.22828e-05
-6.47476e-05
-5.70006e-05
-5.8334e-05
-6.64864e-05
-7.76236e-05
-8.64043e-05
-8.593e-05
-6.94175e-05
-3.12763e-05
3.03941e-05
0.000113657
0.000212672
0.000317996
0.000417397
0.000497229
0.00054405
0.000545995
0.000494716
0.000386129
0.00022109
5.50767e-06
-0.000249195
-0.000527053
-0.000810139
-0.00107996
-0.00131508
-0.00149123
-0.00159027
-0.00160387
-0.00153968
-0.00141593
-0.00124962
-0.00105665
-0.000852153
-0.000650649
-0.000456743
-0.000275298
-0.00010553
6.01623e-05
-8.58425e-05
-7.02569e-05
-3.86512e-05
-8.53023e-06
1.07965e-05
1.94968e-05
1.72644e-05
-5.83431e-06
-6.30162e-05
-0.000160577
-0.000285651
-0.00041619
-0.000520567
-0.000545587
-0.000437942
-0.000177165
0.000212804
0.000661343
0.00106747
0.0013121
0.00131052
0.00102942
0.000496093
-0.00021526
-0.000990986
-0.00169575
-0.0022077
-0.00243635
-0.00236414
-0.00198061
-0.00140794
-0.000712452
-1.57828e-05
0.000581535
0.00101839
0.00122551
0.00125384
0.0011702
0.00104898
0.000883793
0.000611192
0.000214079
-0.000249304
-0.000671911
-0.000975241
-0.00115337
-0.00104621
-0.000704505
-0.000245338
0.000198123
0.000474378
0.000615543
0.000713368
0.000797369
0.000877661
0.000949157
0.0010037
0.00101064
0.00092183
0.000734749
0.000532373
0.000355727
0.000168331
3.85348e-05
4.17975e-06
4.26719e-05
0.000120276
0.000206231
0.000264623
0.000276689
0.000275452
0.000282005
0.000297856
0.000320003
0.000339734
0.000343973
0.000323387
0.000275844
0.000227174
0.000184758
0.000151006
0.000122138
0.000101249
8.99915e-05
8.50437e-05
8.35342e-05
8.35768e-05
8.48263e-05
8.67415e-05
8.91262e-05
9.16266e-05
9.38698e-05
9.54445e-05
9.55414e-05
9.27923e-05
8.5426e-05
7.22775e-05
5.50174e-05
3.61583e-05
1.71557e-05
-1.82227e-06
-1.99614e-05
-3.76359e-05
-5.46217e-05
-7.05951e-05
-8.50215e-05
-9.72961e-05
-0.000107681
-0.000116676
-0.000126123
-0.000136922
-0.000149366
-0.00016361
-0.000179838
-0.000198372
-0.000218222
-0.000237595
-0.000256384
-0.000277037
-0.000299783
-0.000322611
-0.000344458
-0.000363119
-0.000376782
-0.000384352
-0.000385963
-0.000381004
-0.000371458
-0.00035843
-0.000343544
-0.000328044
-0.00031199
-0.000294711
-0.000274774
-0.000250407
-0.000219453
-0.000180357
-0.000133413
-8.12713e-05
-2.80882e-05
2.0012e-05
5.59636e-05
7.37277e-05
7.18167e-05
5.24527e-05
2.31045e-05
-6.56127e-06
-2.38877e-05
-1.61336e-05
2.70484e-05
0.000110402
0.00023273
0.000385569
0.000555052
0.00072262
0.000868107
0.000971299
0.00101407
0.000983729
0.000872674
0.00068161
0.000417266
9.4146e-05
-0.000267566
-0.000643763
-0.00100933
-0.00133691
-0.00159859
-0.00177263
-0.00185127
-0.00184082
-0.00175899
-0.00162268
-0.00144558
-0.0012376
-0.00101312
-0.000777335
-0.000544269
-0.000318644
-9.82073e-05
-1.84419e-05
-1.384e-05
-1.06534e-05
-1.32899e-05
-2.05626e-05
-3.33436e-05
-6.01683e-05
-0.000117127
-0.000216336
-0.000358532
-0.000540116
-0.000743367
-0.00090137
-0.000929019
-0.000760098
-0.000375752
0.000173574
0.000777886
0.00129428
0.00159174
0.0015891
0.00126581
0.000669458
-9.80529e-05
-0.000890975
-0.0015746
-0.00204769
-0.00225252
-0.00218985
-0.00189252
-0.00143279
-0.00090386
-0.000382405
4.42263e-05
0.000318298
0.000436852
0.000479502
0.000538313
0.000616995
0.00068623
0.000653066
0.000503373
0.000251158
-4.80335e-05
-0.00020822
-0.000266006
9.64978e-05
0.000582637
0.00105235
0.00138603
0.00144663
0.00122602
0.000878383
0.000539522
0.000304996
0.000226256
0.000308896
0.000518977
0.000767037
0.000943697
0.000921936
0.000697338
0.000476465
0.00029409
0.000199971
0.000201955
0.000263314
0.000337545
0.000391464
0.000388274
0.000355771
0.000331152
0.000321982
0.000334132
0.000355062
0.000363256
0.000343821
0.000299947
0.000250421
0.000203203
0.000160798
0.000124162
0.000100191
9.01092e-05
8.94704e-05
9.3718e-05
9.99695e-05
0.000107668
0.000116376
0.000125841
0.000135709
0.000145444
0.000153687
0.000159152
0.000159856
0.000153796
0.000141546
0.000125265
0.000106503
8.67606e-05
6.63667e-05
4.49767e-05
2.34515e-05
1.76485e-06
-1.91612e-05
-3.90426e-05
-5.75421e-05
-7.39399e-05
-8.93012e-05
-0.0001057
-0.000122908
-0.000139774
-0.000156131
-0.000172168
-0.000188784
-0.000205822
-0.000222478
-0.000239912
-0.000261341
-0.000287053
-0.000315422
-0.000344852
-0.000371675
-0.000392155
-0.000403345
-0.000404673
-0.000398044
-0.000386222
-0.000369394
-0.000351134
-0.000333534
-0.00031677
-0.000299737
-0.000280263
-0.000255108
-0.000220447
-0.000172452
-0.000109827
-3.57962e-05
4.26399e-05
0.000116114
0.000172751
0.000199812
0.000192565
0.000154961
9.90208e-05
4.05569e-05
-7.43381e-07
-5.97387e-06
4.16505e-05
0.000149568
0.00031654
0.00053057
0.000772611
0.00101729
0.00123751
0.00140704
0.00150186
0.00150406
0.00140403
0.00120047
0.000899388
0.000516539
7.45928e-05
-0.000396971
-0.000866705
-0.00130067
-0.00166571
-0.00193596
-0.00209783
-0.0021541
-0.00211996
-0.00201287
-0.00184901
-0.00163779
-0.00139571
-0.00112679
-0.000850531
-0.000573496
-0.00029672
-1.09989e-05
-1.84293e-05
-3.08265e-05
-5.00168e-05
-7.50977e-05
-0.000105484
-0.000150263
-0.000225681
-0.000339633
-0.000503937
-0.000741213
-0.00101134
-0.00122409
-0.00127463
-0.00108422
-0.000634114
1.62068e-05
0.000733028
0.00135763
0.00174471
0.0017977
0.00149894
0.000913533
0.000169981
-0.000593894
-0.00125559
-0.00171751
-0.00194492
-0.00194586
-0.00176359
-0.00144673
-0.00107171
-0.000738348
-0.000543506
-0.000501171
-0.000510532
-0.000426886
-0.00017006
0.000253451
0.000671316
0.000955397
0.00103812
0.000896402
0.000588237
0.000217707
-9.48619e-05
-0.000222215
0.000181186
0.000853895
0.00165545
0.00224224
0.00242403
0.00212149
0.00147353
0.000717438
7.54505e-05
-0.000308713
-0.000381098
-0.000166714
0.000252954
0.00072105
0.000996535
0.000912715
0.000598378
0.000403537
0.000338836
0.000348832
0.000378628
0.000398897
0.000401651
0.000380929
0.000353232
0.00032999
0.000332314
0.00035555
0.000372103
0.000360621
0.000326499
0.000280435
0.000230954
0.000181167
0.000136386
0.000106528
9.46735e-05
9.69103e-05
0.000106584
0.000119584
0.000134904
0.000152144
0.000170933
0.00019058
0.000209762
0.000226393
0.000238122
0.000242506
0.000239132
0.000229384
0.000215258
0.000197911
0.000178591
0.000157442
0.000133603
0.00010842
8.16853e-05
5.46788e-05
2.79097e-05
1.32275e-06
-2.56765e-05
-5.37199e-05
-8.33717e-05
-0.000112531
-0.000138478
-0.000160964
-0.000179951
-0.000195779
-0.000208949
-0.000220125
-0.00023158
-0.000247844
-0.000270842
-0.000300255
-0.000334174
-0.000367479
-0.000393209
-0.000407601
-0.000410434
-0.000404213
-0.000389501
-0.000369829
-0.00034928
-0.000329613
-0.000312493
-0.000295999
-0.000276792
-0.00025051
-0.000211468
-0.000153632
-7.36446e-05
2.4795e-05
0.000131621
0.000233333
0.000310075
0.000342164
0.000321479
0.000254361
0.000159217
6.02119e-05
-1.35625e-05
-3.63123e-05
1.34966e-05
0.000144052
0.000353235
0.000624522
0.000931122
0.00124392
0.00153095
0.00176226
0.00191228
0.00196026
0.0018918
0.00170126
0.00139136
0.00097545
0.000476239
-7.41114e-05
-0.00063986
-0.00118097
-0.0016583
-0.00203907
-0.0023027
-0.00244454
-0.00247369
-0.00240597
-0.00226107
-0.00204985
-0.00179263
-0.00149511
-0.00118056
-0.000857745
-0.000527745
-3.10461e-05
-4.25091e-05
-6.63607e-05
-0.000100833
-0.00014041
-0.000182737
-0.000233314
-0.000304481
-0.000406896
-0.000583071
-0.000850111
-0.00116258
-0.00142243
-0.00151156
-0.00134114
-0.000882678
-0.000199073
0.000584623
0.00129462
0.00177059
0.00191291
0.00169921
0.00119933
0.000526273
-0.000189821
-0.000830499
-0.00132212
-0.0016215
-0.00173727
-0.00168795
-0.00152105
-0.00134572
-0.00127753
-0.00138459
-0.00157934
-0.00166278
-0.00142967
-0.000829366
9.02537e-06
0.000878535
0.00157309
0.00198037
0.00201536
0.00171218
0.00115863
0.000548172
1.20466e-05
-0.000272531
-0.000371742
1.96903e-05
0.000752117
0.00160676
0.00229276
0.00237319
0.00182998
0.000933542
-5.72937e-06
-0.000714873
-0.00100909
-0.000835768
-0.000321625
0.000355885
0.000929505
0.00107564
0.000742604
0.000366745
0.000222384
0.000197354
0.000197986
0.000234223
0.000296661
0.000317956
0.000312145
0.00031678
0.000345817
0.000373932
0.000377576
0.000359688
0.000324641
0.000278699
0.000224212
0.000170255
0.000129936
0.000109859
0.000110757
0.000124658
0.0001449
0.000168974
0.00019585
0.000224802
0.000254413
0.000282296
0.000305342
0.000320693
0.000326993
0.000325201
0.000316997
0.000303891
0.000287526
0.000268637
0.000246501
0.000221354
0.00019337
0.00016302
0.000130998
9.78548e-05
6.27889e-05
2.38626e-05
-1.96577e-05
-6.43047e-05
-0.000105921
-0.000141872
-0.000172159
-0.000196995
-0.000214903
-0.00022655
-0.000233115
-0.000237448
-0.000245325
-0.000261334
-0.00028692
-0.000320721
-0.00035601
-0.000384069
-0.000401018
-0.000406305
-0.000400814
-0.000385164
-0.000362548
-0.000337227
-0.000314435
-0.0002948
-0.000276095
-0.000254437
-0.00022435
-0.000177887
-0.00010616
-3.22604e-06
0.000126693
0.000270239
0.000404008
0.000498078
0.000526365
0.000478754
0.000366343
0.00021803
6.97563e-05
-4.27991e-05
-8.68359e-05
-4.21407e-05
9.97347e-05
0.000326444
0.000614399
0.000940514
0.00128033
0.00160715
0.00189275
0.00210786
0.00222505
0.00222338
0.00208714
0.00181259
0.00140799
0.000893937
0.000300445
-0.000333695
-0.000964686
-0.00154719
-0.00204146
-0.00241826
-0.00266229
-0.0027751
-0.00276535
-0.00265331
-0.00245191
-0.00218629
-0.00186533
-0.00151696
-0.00115283
-0.000775812
-5.11558e-05
-6.77523e-05
-0.000100576
-0.000145582
-0.000197244
-0.000248682
-0.000299386
-0.000356511
-0.00044803
-0.000620664
-0.000892176
-0.00122517
-0.00152153
-0.00166215
-0.00154871
-0.0011441
-0.000485481
0.000314305
0.001092
0.00168832
0.00198707
0.00194719
0.00161564
0.00108457
0.000478248
-0.000102632
-0.000589061
-0.000945873
-0.00115881
-0.00124401
-0.00126468
-0.00133119
-0.00156721
-0.00198789
-0.00239116
-0.00249415
-0.00209094
-0.00119311
-2.4899e-05
0.00114337
0.00207005
0.00266336
0.00285385
0.00265633
0.00212661
0.00135257
0.000549265
1.08211e-05
-0.000201088
-0.000528884
-0.00053341
-3.01812e-05
0.000921162
0.00199096
0.00249898
0.00218099
0.00121418
-2.78075e-06
-0.00105847
-0.0016428
-0.00158776
-0.000956583
-5.31289e-05
0.000766816
0.00116106
0.000947363
0.000436969
8.59775e-05
-4.39016e-05
-2.60727e-05
9.52716e-05
0.000220168
0.000268055
0.000291227
0.000322323
0.000358008
0.000381148
0.000388712
0.000377565
0.000346266
0.000295019
0.000234404
0.000179598
0.000143483
0.000133688
0.000148015
0.000174575
0.000207315
0.000243305
0.000281064
0.000317882
0.000350638
0.000375869
0.000391385
0.000396687
0.000393304
0.000383883
0.00036984
0.000353077
0.000333075
0.000309706
0.000282939
0.000253074
0.000220911
0.000185509
0.000146977
0.000103318
5.4256e-05
2.47791e-08
-5.50425e-05
-0.000105597
-0.000148943
-0.000186066
-0.000215905
-0.000237699
-0.000250715
-0.000255298
-0.000254251
-0.000254005
-0.000261688
-0.000281204
-0.000312339
-0.000347001
-0.000376297
-0.000396017
-0.000403895
-0.000398714
-0.000380174
-0.000351767
-0.000320422
-0.000291379
-0.000265675
-0.000240554
-0.00021154
-0.00017273
-0.000113742
-2.07663e-05
0.000115678
0.000290625
0.000478545
0.000644471
0.000750291
0.000763895
0.000678209
0.000511809
0.000307183
0.000110752
-3.74876e-05
-0.00010567
-8.12589e-05
3.01624e-05
0.000214189
0.00046146
0.000760128
0.00109265
0.00143575
0.00176144
0.00203905
0.0022371
0.00232616
0.00228147
0.00208865
0.00174731
0.00127032
0.000684166
2.65973e-05
-0.000657126
-0.00131919
-0.00191307
-0.00240161
-0.00275609
-0.00296642
-0.00303395
-0.0029744
-0.00280122
-0.00254233
-0.00221011
-0.00183751
-0.00143831
-0.00102202
-6.32075e-05
-8.58532e-05
-0.000128175
-0.000182101
-0.000240199
-0.000296128
-0.000345598
-0.000391419
-0.000463436
-0.000606004
-0.000846186
-0.00116605
-0.00148883
-0.00170703
-0.00172005
-0.0014638
-0.000939771
-0.000218868
0.000570477
0.00127481
0.00176893
0.00198901
0.00194053
0.00167789
0.00129081
0.00085619
0.00042984
4.38939e-05
-0.000286128
-0.000540918
-0.000739608
-0.000954935
-0.00132036
-0.00185417
-0.00236128
-0.00252019
-0.00211873
-0.0011923
-1.49385e-05
0.00107019
0.00182899
0.00215841
0.00211095
0.00179879
0.00132435
0.00077878
0.000173688
-0.000421227
-0.000808095
-0.000962487
-0.00139467
-0.00169154
-0.00137478
-0.000181828
0.00146569
0.00269471
0.0028871
0.00202641
0.000538705
-0.00103507
-0.00215157
-0.00241312
-0.00178776
-0.000626374
0.000540776
0.00124861
0.00125429
0.000739794
0.000200041
-9.54397e-05
-0.000138068
-2.1037e-05
0.000141316
0.000240023
0.00029003
0.000326715
0.000358043
0.000386803
0.000408546
0.000411718
0.000386459
0.000333214
0.000266652
0.000207845
0.000175467
0.000177664
0.000205314
0.00024423
0.00028733
0.000330926
0.000371528
0.000405467
0.000429539
0.00044263
0.000444569
0.000437147
0.000423492
0.00040646
0.000386166
0.000363184
0.000337332
0.000309475
0.000279193
0.000246104
0.000209415
0.00016751
0.000117892
6.21368e-05
1.11686e-06
-5.90996e-05
-0.000113516
-0.00016029
-0.000200691
-0.000233645
-0.00025759
-0.000272558
-0.000276335
-0.000271502
-0.000265279
-0.0002665
-0.000281429
-0.000310464
-0.000344689
-0.000375636
-0.000397937
-0.000406999
-0.000400356
-0.000376976
-0.000341517
-0.000301317
-0.000262451
-0.000226969
-0.000191153
-0.000150415
-9.8711e-05
-2.02239e-05
0.000106383
0.000292213
0.000521853
0.00075815
0.000956713
0.00107113
0.00106627
0.000939958
0.000724887
0.000478242
0.000250182
8.71179e-05
-5.03975e-06
-3.5321e-05
-8.67615e-06
7.82367e-05
0.000226559
0.000432912
0.000694689
0.00100113
0.00133415
0.00166191
0.00194755
0.00214996
0.00223423
0.00217101
0.00194525
0.00155975
0.00103213
0.000397837
-0.000295963
-0.000997805
-0.00165675
-0.0022282
-0.00268008
-0.00299138
-0.00315126
-0.00316517
-0.0030444
-0.00281488
-0.00249267
-0.00211299
-0.00169275
-0.0012486
-7.53558e-05
-0.000101221
-0.00014953
-0.000213139
-0.000280443
-0.000340513
-0.000385671
-0.000414208
-0.000452821
-0.000540983
-0.000708672
-0.000970137
-0.00128987
-0.00158736
-0.00176535
-0.00174436
-0.0014784
-0.000980662
-0.000318808
0.000399929
0.00105819
0.00156145
0.00185874
0.00194548
0.00185774
0.00164284
0.00134005
0.000975365
0.000591347
0.000258863
2.73501e-05
-0.0001454
-0.000420286
-0.000894987
-0.00144702
-0.00177913
-0.00164556
-0.00108754
-0.000265863
0.000501193
0.000913592
0.000904701
0.000594309
0.000108836
-0.000449114
-0.000951146
-0.00123146
-0.0012223
-0.00110116
-0.00117258
-0.00153395
-0.00254885
-0.00356288
-0.00361219
-0.0022436
8.80356e-05
0.00233438
0.00345083
0.0030867
0.00152562
-0.00054112
-0.00232245
-0.00316044
-0.00280619
-0.00153589
1.38514e-05
0.00118141
0.00156828
0.00122595
0.000585398
7.034e-05
-0.000162414
-0.000147463
7.91039e-06
0.00016333
0.000257136
0.000316256
0.000365738
0.000412607
0.00045054
0.000466704
0.000448211
0.000393946
0.000318289
0.00025502
0.000227919
0.000238609
0.000275677
0.000322296
0.000369296
0.000411375
0.000444499
0.000466252
0.000475284
0.000472173
0.000459403
0.000439841
0.00041583
0.000389724
0.000361508
0.000331758
0.000301513
0.000269935
0.000236644
0.000199451
0.000156266
0.000106036
4.89842e-05
-1.30781e-05
-7.32121e-05
-0.000127072
-0.000173666
-0.000214127
-0.000247192
-0.000271122
-0.000285037
-0.000287714
-0.000280511
-0.000270972
-0.000269106
-0.000282768
-0.000312602
-0.000348785
-0.000382268
-0.000406642
-0.000415571