/*--------------------------------*- C++ -*----------------------------------*\
| =========                 |                                                 |
| \\      /  F ield         | OpenFOAM: The Open Source CFD Toolbox           |
|  \\    /   O peration     | Version:  5.x                                   |
|   \\  /    A nd           | Web:      www.OpenFOAM.org                      |
|    \\/     M anipulation  |                                                 |
\*---------------------------------------------------------------------------*/
FoamFile
{
    version     2.0;
    format      ascii;
    class       volVectorField;
    location    "0.1";
    object      Urom;
}
// * * * * * * * * * * * * * * * * * * * * * * * * * * * * * * * * * * * * * //

dimensions      [0 1 -1 0 0 0 0];

internalField   nonuniform List<vector> 
17720
(
(0.963821 0.00276948 0)
(0.904065 0.0029299 0)
(2.4196 0.0268128 0)
(0.84074 0.00322082 0)
(2.29524 0.0280895 0)
(3.57561 0.0614686 0)
(0.774908 0.00353089 0)
(2.16525 0.0293399 0)
(3.43339 0.064123 0)
(4.48931 0.0965036 0)
(0.709867 0.00359027 0)
(2.03372 0.029611 0)
(3.28424 0.0662906 0)
(4.36086 0.100824 0)
(5.20156 0.127408 0)
(0.648929 0.00337147 0)
(1.90762 0.028248 0)
(3.13211 0.0658159 0)
(4.2252 0.105008 0)
(5.0936 0.132056 0)
(5.77444 0.156734 0)
(0.594471 0.00302222 0)
(1.79259 0.0256492 0)
(2.98635 0.0618759 0)
(4.08026 0.104529 0)
(4.98556 0.13912 0)
(5.67135 0.158811 0)
(6.26522 0.188301 0)
(0.548088 0.00259715 0)
(1.69125 0.0224129 0)
(2.8548 0.0557172 0)
(3.93488 0.0979469 0)
(4.86574 0.141482 0)
(5.57904 0.166449 0)
(6.15477 0.187232 0)
(6.68463 0.219303 0)
(0.510142 0.00215895 0)
(1.60476 0.0188004 0)
(2.74022 0.048689 0)
(3.8018 0.087413 0)
(4.73444 0.134725 0)
(5.48421 0.172507 0)
(6.05509 0.192218 0)
(6.58211 0.220475 0)
(7.00612 0.239962 0)
(0.47958 0.00179815 0)
(1.53332 0.0152305 0)
(2.64191 0.0410772 0)
(3.68786 0.0759875 0)
(4.60545 0.120353 0)
(5.37679 0.168523 0)
(5.96573 0.198731 0)
(6.46949 0.222675 0)
(6.94399 0.251655 0)
(7.22582 0.246406 0)
(0.456081 0.00121418 0)
(1.47597 0.0119255 0)
(2.55844 0.0334381 0)
(3.59226 0.0644638 0)
(4.49221 0.10338 0)
(5.2634 0.153466 0)
(5.87545 0.196708 0)
(6.3671 0.225965 0)
(6.84729 0.257854 0)
(7.21177 0.268275 0)
(7.39151 0.247291 0)
(0.441254 0.000586012 0)
(1.43221 0.00846495 0)
(2.48898 0.0263044 0)
(3.51063 0.0534157 0)
(4.3987 0.086839 0)
(5.15681 0.132467 0)
(5.78281 0.182253 0)
(6.27628 0.222333 0)
(6.7374 0.258647 0)
(7.16945 0.286666 0)
(7.39463 0.267627 0)
(7.57013 0.255575 0)
(0.43531 -1.29292e-05 0)
(1.40283 0.00480582 0)
(2.43342 0.0194432 0)
(3.43912 0.0433394 0)
(4.32146 0.0725935 0)
(5.06277 0.110639 0)
(5.69433 0.160242 0)
(6.19244 0.206338 0)
(6.63469 0.250794 0)
(7.08909 0.293661 0)
(7.40868 0.295752 0)
(7.55109 0.261522 0)
(7.79228 0.273995 0)
(0.435635 -0.000430465 0)
(1.38622 0.00164356 0)
(2.39189 0.0123076 0)
(3.3773 0.0334407 0)
(4.25372 0.0607232 0)
(4.98199 0.0922084 0)
(5.61007 0.136393 0)
(6.11772 0.182901 0)
(6.54233 0.231001 0)
(6.98647 0.285252 0)
(7.39312 0.317862 0)
(7.58005 0.285363 0)
(7.7453 0.265374 0)
(8.02828 0.28877 0)
(0.43789 -0.000570859 0)
(1.37786 -0.000122134 0)
(2.36208 0.00646783 0)
(3.32561 0.0231895 0)
(4.19255 0.0491773 0)
(4.91206 0.0780661 0)
(5.5279 0.115378 0)
(6.05024 0.159382 0)
(6.46189 0.203544 0)
(6.87814 0.262062 0)
(7.32778 0.320622 0)
(7.62072 0.319579 0)
(7.74209 0.271451 0)
(7.99275 0.281757 0)
(8.2248 0.282128 0)
(0.440318 -0.000496982 0)
(1.37172 -0.000649927 0)
(2.33937 0.00343267 0)
(3.28259 0.0149279 0)
(4.13899 0.0371319 0)
(4.8513 0.0646199 0)
(5.45071 0.0981222 0)
(5.98206 0.139227 0)
(6.39828 0.177297 0)
(6.77607 0.229152 0)
(7.22088 0.30108 0)
(7.62132 0.343149 0)
(7.78752 0.302465 0)
(7.95101 0.272344 0)
(8.24657 0.294971 0)
(8.36174 0.252284 0)
(0.443969 -0.000764069 0)
(1.36472 -0.00045615 0)
(2.31841 0.00310014 0)
(3.2455 0.0104893 0)
(4.09196 0.0269249 0)
(4.80237 0.0502893 0)
(5.38415 0.0806901 0)
(5.91171 0.120818 0)
(6.34953 0.156789 0)
(6.69659 0.194571 0)
(7.09902 0.264027 0)
(7.5562 0.340028 0)
(7.83924 0.342062 0)
(7.95058 0.285199 0)
(8.21072 0.290276 0)
(8.44116 0.285386 0)
(8.46857 0.21954 0)
(0.451044 -0.000995744 0)
(1.3574 -0.00136409 0)
(2.29546 0.00408126 0)
(3.21136 0.0104955 0)
(4.04984 0.021063 0)
(4.76636 0.0379636 0)
(5.33653 0.0606976 0)
(5.84644 0.0990326 0)
(6.30784 0.139102 0)
(6.65342 0.166207 0)
(6.99693 0.217351 0)
(7.4441 0.305766 0)
(7.84532 0.362489 0)
(8.0008 0.32149 0)
(8.16315 0.286588 0)
(8.46425 0.306085 0)
(8.55296 0.250694 0)
(8.5771 0.205587 0)
(0.462755 -0.0016685 0)
(1.35304 -0.00276289 0)
(2.26908 0.00329205 0)
(3.17732 0.0122171 0)
(4.01098 0.0203317 0)
(4.73959 0.0314564 0)
(5.31473 0.0430729 0)
(5.7984 0.0707509 0)
(6.26827 0.11581 0)
(6.64366 0.145031 0)
(6.94387 0.172701 0)
(7.33396 0.2473 0)
(7.79065 0.341969 0)
(8.06497 0.35618 0)
(8.16529 0.299943 0)
(8.42515 0.306322 0)
(8.64096 0.295315 0)
(8.61767 0.211433 0)
(8.67531 0.20894 0)
(0.478133 -0.00180663 0)
(1.35472 -0.00491132 0)
(2.24174 0.000739781 0)
(3.13993 0.0125225 0)
(3.97459 0.0218155 0)
(4.71518 0.0303931 0)
(5.31583 0.0342675 0)
(5.78152 0.0431014 0)
(6.23456 0.0811318 0)
(6.64932 0.122121 0)
(6.94768 0.138721 0)
(7.26986 0.18208 0)
(7.71017 0.278744 0)
(8.09835 0.353938 0)
(8.23682 0.324616 0)
(8.38533 0.295349 0)
(8.67559 0.320272 0)
(8.72141 0.252126 0)
(8.67864 0.187594 0)
(8.73736 0.212375 0)
(0.494211 -0.0016633 0)
(1.36318 -0.00575706 0)
(2.21878 -0.00320359 0)
(3.09697 0.0100887 0)
(3.93769 0.0235334 0)
(4.68807 0.0318042 0)
(5.32623 0.0343477 0)
(5.80098 0.026877 0)
(6.22072 0.0422292 0)
(6.65421 0.0861761 0)
(6.99113 0.111726 0)
(7.26827 0.128181 0)
(7.65234 0.195406 0)
(8.0934 0.297298 0)
(8.34308 0.329488 0)
(8.41775 0.286771 0)
(8.65776 0.305825 0)
(8.84264 0.298286 0)
(8.75252 0.195544 0)
(8.74198 0.176216 0)
(8.76923 0.204387 0)
(0.506121 -0.00115773 0)
(1.37479 -0.00501228 0)
(2.20503 -0.00624046 0)
(3.05224 0.00429024 0)
(3.89414 0.0229427 0)
(4.65681 0.0341235 0)
(5.32888 0.0390379 0)
(5.84512 0.0260662 0)
(6.24169 0.0143823 0)
(6.65893 0.0407415 0)
(7.04498 0.0775184 0)
(7.32144 0.0885559 0)
(7.64158 0.120871 0)
(8.07583 0.206741 0)
(8.43676 0.285616 0)
(8.54193 0.273892 0)
(8.65569 0.262342 0)
(8.91841 0.304465 0)
(8.91143 0.231909 0)
(8.78971 0.146227 0)
(8.80016 0.161499 0)
(8.79871 0.183261 0)
(0.509517 -0.000143136 0)
(1.38294 -0.00198465 0)
(2.20079 -0.00618521 0)
(3.01508 -0.00184219 0)
(3.84273 0.0169788 0)
(4.61904 0.0353402 0)
(5.31408 0.0439051 0)
(5.88907 0.0361 0)
(6.29769 0.00746956 0)
(6.67994 0.00241337 0)
(7.08926 0.0328563 0)
(7.40665 0.0516652 0)
(7.6805 0.06334 0)
(8.0708 0.118376 0)
(8.49619 0.202767 0)
(8.71218 0.234534 0)
(8.7446 0.208815 0)
(8.94458 0.251175 0)
(9.09508 0.258939 0)
(8.93247 0.141433 0)
(8.85189 0.105785 0)
(8.85917 0.132747 0)
(8.84651 0.150407 0)
(0.504497 0.000597317 0)
(1.38273 0.00148625 0)
(2.20233 -0.00272951 0)
(2.9933 -0.00529696 0)
(3.79381 0.00804803 0)
(4.57394 0.0306378 0)
(5.28372 0.0466499 0)
(5.90922 0.0483299 0)
(6.36883 0.0196266 0)
(6.72977 -0.0137617 0)
(7.127 -0.00949419 0)
(7.49554 0.0107163 0)
(7.76435 0.0150083 0)
(8.09187 0.0449261 0)
(8.52742 0.11488 0)
(8.86388 0.168425 0)
(8.93153 0.151509 0)
(8.99455 0.157072 0)
(9.22207 0.227543 0)
(9.16891 0.1601 0)
(8.96491 0.0531495 0)
(8.93534 0.0639358 0)
(8.93038 0.087932 0)
(8.91633 0.106294 0)
(0.495737 0.00125828 0)
(1.37638 0.00363754 0)
(2.20725 0.00124356 0)
(2.98914 -0.00521546 0)
(3.76298 -0.0015152 0)
(4.53071 0.0188838 0)
(5.24707 0.0421233 0)
(5.90089 0.0559445 0)
(6.42697 0.0402821 0)
(6.80182 -0.00469629 0)
(7.17309 -0.032505 0)
(7.56986 -0.0278483 0)
(7.87816 -0.0276996 0)
(8.1513 -0.0207877 0)
(8.54847 0.0342814 0)
(8.96455 0.096925 0)
(9.15188 0.0959204 0)
(9.13943 0.0595746 0)
(9.29071 0.122518 0)
(9.41245 0.158537 0)
(9.18327 0.0303463 0)
(9.03613 -0.021207 0)
(9.03353 0.0118828 0)
(9.01667 0.0291986 0)
(9.00261 0.0520147 0)
(0.489499 0.00167545 0)
(1.37324 0.00324033 0)
(2.21739 0.00295456 0)
(3.00248 -0.00378066 0)
(3.75765 -0.00740775 0)
(4.50721 0.00263922 0)
(5.2183 0.0258185 0)
(5.87955 0.0509955 0)
(6.45859 0.0562436 0)
(6.87757 0.019407 0)
(7.2331 -0.0286711 0)
(7.63019 -0.0509646 0)
(7.99309 -0.0600624 0)
(8.25853 -0.0756903 0)
(8.58328 -0.0477044 0)
(9.01871 0.0237766 0)
(9.33775 0.0490361 0)
(9.37092 -0.00773368 0)
(9.38215 -0.0159939 0)
(9.575 0.0819209 0)
(9.48261 0.0322269 0)
(9.20278 -0.0951773 0)
(9.14307 -0.0854949 0)
(9.14015 -0.053156 0)
(9.11225 -0.0401606 0)
(9.09577 -0.0107928 0)
(0.491717 0.00133792 0)
(1.38446 0.000273833 0)
(2.23698 -0.000720887 0)
(3.0334 -0.005028 0)
(3.77822 -0.0117268 0)
(4.51226 -0.0102776 0)
(5.21285 0.00249158 0)
(5.86606 0.0282013 0)
(6.47315 0.0536022 0)
(6.94575 0.0409366 0)
(7.30341 -0.00701334 0)
(7.68614 -0.0491473 0)
(8.08634 -0.0757735 0)
(8.39646 -0.107982 0)
(8.66239 -0.12286 0)
(9.05013 -0.0651055 0)
(9.46002 -0.001014 0)
(9.62324 -0.0374527 0)
(9.56485 -0.120364 0)
(9.66704 -0.0669188 0)
(9.75916 -0.00106749 0)
(9.47127 -0.12759 0)
(9.26997 -0.193934 0)
(9.26681 -0.150157 0)
(9.24653 -0.129887 0)
(9.20974 -0.115122 0)
(9.18292 -0.0824605 0)
(0.504325 0.000734005 0)
(1.41891 -0.00459299 0)
(2.26986 -0.00927531 0)
(3.07608 -0.0110232 0)
(3.82046 -0.0176241 0)
(4.5426 -0.0207234 0)
(5.23738 -0.017459 0)
(5.87591 -0.0034461 0)
(6.4862 0.0264923 0)
(7.00872 0.0417968 0)
(7.3842 0.0122757 0)
(7.74572 -0.0318716 0)
(8.15747 -0.0701153 0)
(8.52722 -0.113623 0)
(8.79511 -0.16587 0)
(9.09958 -0.160908 0)
(9.52215 -0.0804997 0)
(9.83182 -0.0563312 0)
(9.83045 -0.157247 0)
(9.78245 -0.214324 0)
(9.93092 -0.115897 0)
(9.79837 -0.142682 0)
(9.46171 -0.276427 0)
(9.38344 -0.267649 0)
(9.38743 -0.222961 0)
(9.34357 -0.214438 0)
(9.3012 -0.191795 0)
(9.25818 -0.161036 0)
(0.523135 0.00032173 0)
(1.47587 -0.00850989 0)
(2.32238 -0.0204911 0)
(3.11895 -0.0216447 0)
(3.86973 -0.0237769 0)
(4.58581 -0.0298625 0)
(5.28285 -0.0315474 0)
(5.91494 -0.0304523 0)
(6.50935 -0.0123517 0)
(7.06752 0.0157522 0)
(7.48058 0.0121293 0)
(7.81854 -0.020099 0)
(8.21814 -0.0539025 0)
(8.63044 -0.0988471 0)
(8.94922 -0.167463 0)
(9.20454 -0.224039 0)
(9.55869 -0.187432 0)
(9.95914 -0.10757 0)
(10.1094 -0.151796 0)
(9.99694 -0.288308 0)
(10.0295 -0.276827 0)
(10.074 -0.203807 0)
(9.7464 -0.31559 0)
(9.51313 -0.385406 0)
(9.51291 -0.332973 0)
(9.48989 -0.305873 0)
(9.42675 -0.3001 0)
(9.37669 -0.269648 0)
(9.3296 -0.2361 0)
(0.541256 0.000482127 0)
(1.54345 -0.00955683 0)
(2.39952 -0.029437 0)
(3.16065 -0.0371214 0)
(3.90404 -0.03109 0)
(4.62124 -0.0331383 0)
(5.32627 -0.038686 0)
(5.97125 -0.0459194 0)
(6.54921 -0.0456098 0)
(7.1182 -0.0237116 0)
(7.58676 -0.0112209 0)
(7.91725 -0.0284304 0)
(8.28065 -0.0485966 0)
(8.70947 -0.0774158 0)
(9.08789 -0.14136 0)
(9.3572 -0.232049 0)
(9.62713 -0.273741 0)
(10.0111 -0.206603 0)
(10.3204 -0.161695 0)
(10.2924 -0.282963 0)
(10.1644 -0.398864 0)
(10.2368 -0.330481 0)
(10.0646 -0.347369 0)
(9.70988 -0.47062 0)
(9.62139 -0.460169 0)
(9.62782 -0.404553 0)
(9.56638 -0.395404 0)
(9.49259 -0.381547 0)
(9.43363 -0.345732 0)
(9.40961 -0.294229 0)
(0.556087 0.00060811 0)
(1.60727 -0.00809105 0)
(2.49652 -0.0316151 0)
(3.21925 -0.0530847 0)
(3.91672 -0.0466446 0)
(4.62864 -0.0334703 0)
(5.34074 -0.0343529 0)
(6.01631 -0.0455716 0)
(6.59882 -0.0614624 0)
(7.15818 -0.0577468 0)
(7.68138 -0.0436543 0)
(8.0438 -0.0544161 0)
(8.35965 -0.0676749 0)
(8.7724 -0.0720461 0)
(9.19704 -0.108864 0)
(9.51756 -0.198525 0)
(9.75431 -0.297597 0)
(10.0482 -0.309367 0)
(10.4193 -0.228404 0)
(10.5742 -0.252803 0)
(10.4032 -0.42746 0)
(10.3385 -0.471572 0)
(10.3176 -0.418106 0)
(9.98473 -0.517043 0)
(9.75043 -0.581708 0)
(9.74471 -0.524295 0)
(9.71094 -0.488188 0)
(9.61795 -0.484794 0)
(9.53815 -0.457961 0)
(9.48426 -0.411725 0)
(9.50406 -0.331355 0)
(0.571211 0.000640491 0)
(1.66318 -0.00708541 0)
(2.59855 -0.028043 0)
(3.31259 -0.0608979 0)
(3.93685 -0.0703222 0)
(4.60692 -0.0460484 0)
(5.31339 -0.0257735 0)
(6.01874 -0.0279866 0)
(6.63577 -0.0523084 0)
(7.18644 -0.0717922 0)
(7.74003 -0.0679124 0)
(8.175 -0.0784775 0)
(8.46929 -0.103532 0)
(8.82944 -0.0971434 0)
(9.27317 -0.0938619 0)
(9.6554 -0.152244 0)
(9.91201 -0.264606 0)
(10.1328 -0.35441 0)
(10.4422 -0.329406 0)
(10.7437 -0.265597 0)
(10.7038 -0.380098 0)
(10.4838 -0.550055 0)
(10.4687 -0.52839 0)
(10.2733 -0.555317 0)
(9.94406 -0.667516 0)
(9.85179 -0.65908 0)
(9.84612 -0.59679 0)
(9.75865 -0.581775 0)
(9.64956 -0.569426 0)
(9.57049 -0.528645 0)
(9.54943 -0.45984 0)
(9.61352 -0.35693 0)
(0.592035 0.00026136 0)
(1.71956 -0.00856211 0)
(2.69464 -0.0256142 0)
(3.4357 -0.0590398 0)
(4.00421 -0.0900219 0)
(4.59065 -0.0776689 0)
(5.25894 -0.0354593 0)
(5.96879 -0.00792383 0)
(6.63292 -0.0191912 0)
(7.19675 -0.0559105 0)
(7.75481 -0.072829 0)
(8.26828 -0.084132 0)
(8.60256 -0.125572 0)
(8.89848 -0.143947 0)
(9.31834 -0.114795 0)
(9.75284 -0.120106 0)
(10.0631 -0.206939 0)
(10.2641 -0.329855 0)
(10.4768 -0.394266 0)
(10.7815 -0.337942 0)
(10.9454 -0.331613 0)
(10.7269 -0.525327 0)
(10.5685 -0.628968 0)
(10.5015 -0.612778 0)
(10.1959 -0.713612 0)
(9.98302 -0.778299 0)
(9.96287 -0.726669 0)
(9.90676 -0.684795 0)
(9.77832 -0.678165 0)
(9.669 -0.648177 0)
(9.6111 -0.588854 0)
(9.64513 -0.490614 0)
(9.7366 -0.385961 0)
(0.620729 -0.00021401 0)
(1.78768 -0.0117968 0)
(2.7881 -0.0288751 0)
(3.56876 -0.0556954 0)
(4.12933 -0.0972765 0)
(4.62781 -0.114604 0)
(5.21571 -0.0764157 0)
(5.89172 -0.0158828 0)
(6.58188 0.0145144 0)
(7.17963 -0.0109426 0)
(7.73129 -0.0498869 0)
(8.2955 -0.0686994 0)
(8.72042 -0.112702 0)
(8.99445 -0.172456 0)
(9.34505 -0.165834 0)
(9.7994 -0.124579 0)
(10.1804 -0.154488 0)
(10.4071 -0.267405 0)
(10.565 -0.385193 0)
(10.7732 -0.411885 0)
(11.0358 -0.34667 0)
(11.0024 -0.43621 0)
(10.7148 -0.651642 0)
(10.6415 -0.685729 0)
(10.454 -0.740117 0)
(10.1662 -0.854815 0)
(10.0689 -0.858223 0)
(10.0422 -0.801121 0)
(9.92448 -0.784348 0)
(9.78187 -0.769279 0)
(9.69099 -0.718651 0)
(9.68323 -0.632438 0)
(9.77057 -0.512998 0)
(9.87351 -0.423997 0)
(0.655512 -0.000554931 0)
(1.87166 -0.0152345 0)
(2.8903 -0.0362609 0)
(3.69744 -0.0585478 0)
(4.28846 -0.0955242 0)
(4.74115 -0.137735 0)
(5.22753 -0.133458 0)
(5.82868 -0.0679453 0)
(6.50315 0.00947524 0)
(7.13608 0.0342949 0)
(7.68457 0.000391336 0)
(8.25587 -0.0322147 0)
(8.77772 -0.0695663 0)
(9.10293 -0.149889 0)
(9.38189 -0.203892 0)
(9.79679 -0.168189 0)
(10.2403 -0.133071 0)
(10.5338 -0.198019 0)
(10.6841 -0.325976 0)
(10.8102 -0.424348 0)
(11.0153 -0.408713 0)
(11.1734 -0.377349 0)
(10.9513 -0.569046 0)
(10.739 -0.733696 0)
(10.6611 -0.7652 0)
(10.3926 -0.885826 0)
(10.1939 -0.961773 0)
(10.1497 -0.924964 0)
(10.07 -0.887932 0)
(9.91039 -0.884533 0)
(9.78435 -0.848707 0)
(9.73719 -0.774456 0)
(9.79446 -0.658339 0)
(9.91193 -0.536151 0)
(10.0339 -0.459305 0)
(0.69363 -0.000934865 0)
(1.96611 -0.0172418 0)
(3.00633 -0.0435219 0)
(3.821 -0.0675769 0)
(4.44587 -0.09562 0)
(4.90968 -0.141704 0)
(5.32142 -0.176977 0)
(5.81937 -0.146158 0)
(6.43116 -0.053013 0)
(7.07373 0.0339977 0)
(7.63702 0.0498359 0)
(8.17975 0.0204543 0)
(8.75354 -0.0103133 0)
(9.1805 -0.0826191 0)
(9.44573 -0.183226 0)
(9.77557 -0.211392 0)
(10.2282 -0.155699 0)
(10.6137 -0.146596 0)
(10.8069 -0.248229 0)
(10.899 -0.377474 0)
(11.0065 -0.444078 0)
(11.1937 -0.398404 0)
(11.1867 -0.45193 0)
(10.8918 -0.694518 0)
(10.7905 -0.792136 0)
(10.6233 -0.883332 0)
(10.3604 -1.01664 0)
(10.2441 -1.03851 0)
(10.1899 -0.992857 0)
(10.0478 -0.983943 0)
(9.88584 -0.973144 0)
(9.80621 -0.911768 0)
(9.82414 -0.810512 0)
(9.93258 -0.673792 0)
(10.0644 -0.560981 0)
(10.2408 -0.473197 0)
(0.732301 -0.00137666 0)
(2.06234 -0.0178592 0)
(3.12992 -0.0468401 0)
(3.94159 -0.0761693 0)
(4.57965 -0.100606 0)
(5.08213 -0.137191 0)
(5.48241 -0.190485 0)
(5.88963 -0.212021 0)
(6.40389 -0.151704 0)
(7.00953 -0.0351678 0)
(7.59082 0.0525872 0)
(8.11359 0.0665989 0)
(8.67271 0.0491394 0)
(9.19146 0.00281025 0)
(9.51241 -0.105231 0)
(9.77752 -0.200545 0)
(10.1653 -0.19516 0)
(10.6117 -0.136276 0)
(10.905 -0.170097 0)
(11.0092 -0.30114 0)
(11.0637 -0.419564 0)
(11.1663 -0.446555 0)
(11.2983 -0.407427 0)
(11.1255 -0.569517 0)
(10.893 -0.784794 0)
(10.8079 -0.86848 0)
(10.5615 -1.01722 0)
(10.357 -1.11622 0)
(10.2807 -1.09907 0)
(10.1776 -1.07146 0)
(9.99882 -1.07884 0)
(9.88001 -1.04269 0)
(9.8681 -0.956199 0)
(9.94915 -0.830157 0)
(10.0849 -0.688129 0)
(10.2461 -0.579845 0)
(10.5171 -0.449935 0)
(0.76876 -0.00153315 0)
(2.15222 -0.0173612 0)
(3.2498 -0.045674 0)
(4.05556 -0.0786331 0)
(4.68382 -0.104843 0)
(5.21438 -0.131844 0)
(5.65396 -0.180168 0)
(6.02873 -0.237575 0)
(6.44711 -0.240101 0)
(6.97438 -0.150303 0)
(7.54387 -0.0196386 0)
(8.06753 0.066923 0)
(8.59044 0.0898976 0)
(9.14011 0.0775278 0)
(9.55088 -0.000324024 0)
(9.80384 -0.125681 0)
(10.1087 -0.194642 0)
(10.531 -0.16028 0)
(10.928 -0.119602 0)
(11.1157 -0.205042 0)
(11.1572 -0.35262 0)
(11.1928 -0.450829 0)
(11.3014 -0.442077 0)
(11.3323 -0.462854 0)
(11.0664 -0.699023 0)
(10.925 -0.851532 0)
(10.7637 -0.975905 0)
(10.5046 -1.13693 0)
(10.3638 -1.18703 0)
(10.2831 -1.15957 0)
(10.1245 -1.16194 0)
(9.96227 -1.16044 0)
(9.91836 -1.09242 0)
(9.97427 -0.984109 0)
(10.0992 -0.842544 0)
(10.2599 -0.704087 0)
(10.487 -0.577889 0)
(10.8444 -0.39087 0)
(0.801019 -0.00151094 0)
(2.22959 -0.0155609 0)
(3.35643 -0.0411302 0)
(4.15764 -0.0744409 0)
(4.75935 -0.10274 0)
(5.28871 -0.124597 0)
(5.77502 -0.158249 0)
(6.18314 -0.221407 0)
(6.5537 -0.278434 0)
(6.99224 -0.258429 0)
(7.51351 -0.145656 0)
(8.02964 -0.00834881 0)
(8.53122 0.0838664 0)
(9.065 0.118517 0)
(9.54847 0.0932621 0)
(9.84138 -0.0160006 0)
(10.083 -0.132023 0)
(10.4317 -0.165835 0)
(10.8539 -0.11499 0)
(11.1685 -0.113746 0)
(11.2588 -0.248527 0)
(11.2646 -0.398592 0)
(11.3042 -0.469332 0)
(11.4194 -0.448487 0)
(11.3081 -0.571625 0)
(11.0409 -0.806623 0)
(10.9187 -0.924787 0)
(10.6785 -1.09545 0)
(10.4627 -1.22704 0)
(10.3631 -1.24099 0)
(10.2457 -1.23277 0)
(10.0667 -1.25441 0)
(9.97436 -1.22167 0)
(10.0062 -1.12598 0)
(10.1134 -1.00063 0)
(10.2733 -0.853889 0)
(10.4808 -0.712811 0)
(10.7818 -0.546325 0)
(11.1747 -0.316324 0)
(0.828974 -0.00148117 0)
(2.29143 -0.0131707 0)
(3.44283 -0.0340718 0)
(4.24663 -0.0653167 0)
(4.81452 -0.0951078 0)
(5.31164 -0.113724 0)
(5.81503 -0.132231 0)
(6.28539 -0.178554 0)
(6.6764 -0.256848 0)
(7.05991 -0.308756 0)
(7.51661 -0.267363 0)
(8.00441 -0.141637 0)
(8.48458 0.00395545 0)
(8.99608 0.108508 0)
(9.509 0.144042 0)
(9.87839 0.0893015 0)
(10.0901 -0.0337579 0)
(10.3591 -0.118625 0)
(10.7324 -0.119282 0)
(11.1217 -0.0697088 0)
(11.3349 -0.123488 0)
(11.3482 -0.294925 0)
(11.3429 -0.434022 0)
(11.4245 -0.471709 0)
(11.4952 -0.490662 0)
(11.2379 -0.708056 0)
(11.0208 -0.884862 0)
(10.8457 -1.01665 0)
(10.5851 -1.20036 0)
(10.432 -1.28708 0)
(10.3404 -1.29355 0)
(10.1866 -1.31994 0)
(10.0488 -1.33341 0)
(10.0433 -1.26314 0)
(10.1304 -1.14762 0)
(10.2813 -1.00947 0)
(10.4855 -0.862056 0)
(10.7489 -0.702793 0)
(11.0952 -0.493168 0)
(11.4922 -0.244667 0)
(0.854655 -0.00166667 0)
(2.33853 -0.0112623 0)
(3.50543 -0.0261886 0)
(4.32111 -0.0523755 0)
(4.86462 -0.0840335 0)
(5.30952 -0.103174 0)
(5.78443 -0.108674 0)
(6.29545 -0.127445 0)
(6.75116 -0.192162 0)
(7.13917 -0.282611 0)
(7.54938 -0.325663 0)
(8.00174 -0.271092 0)
(8.44801 -0.136445 0)
(8.93047 0.0252001 0)
(9.44937 0.138483 0)
(9.88874 0.15645 0)
(10.135 0.0694466 0)
(10.3233 -0.0404214 0)
(10.6273 -0.0857861 0)
(11.0004 -0.0620328 0)
(11.3286 -0.0342624 0)
(11.4329 -0.149264 0)
(11.3964 -0.337316 0)
(11.4194 -0.449453 0)
(11.5533 -0.465194 0)
(11.4696 -0.58599 0)
(11.1432 -0.82733 0)
(10.9654 -0.949371 0)
(10.7248 -1.11614 0)
(10.5041 -1.27403 0)
(10.402 -1.32703 0)
(10.2939 -1.35721 0)
(10.1448 -1.40701 0)
(10.0899 -1.38856 0)
(10.1509 -1.28904 0)
(10.2849 -1.15712 0)
(10.4868 -1.01137 0)
(10.7357 -0.860213 0)
(11.0392 -0.672543 0)
(11.4136 -0.431301 0)
(11.7952 -0.186651 0)
(0.879709 -0.00192456 0)
(2.37478 -0.0103241 0)
(3.54527 -0.0197415 0)
(4.3762 -0.0379735 0)
(4.91999 -0.0686219 0)
(5.31739 -0.0950889 0)
(5.72822 -0.0972377 0)
(6.22387 -0.0882703 0)
(6.73801 -0.113679 0)
(7.17788 -0.198036 0)
(7.58121 -0.294739 0)
(8.01365 -0.330758 0)
(8.4323 -0.272285 0)
(8.86353 -0.122143 0)
(9.3712 0.0588981 0)
(9.86061 0.165953 0)
(10.1853 0.149828 0)
(10.3416 0.0463021 0)
(10.5538 -0.0269529 0)
(10.8775 -0.0382926 0)
(11.2297 -0.00249833 0)
(11.4712 -0.0170629 0)
(11.4724 -0.187772 0)
(11.4288 -0.366888 0)
(11.5273 -0.434312 0)
(11.6111 -0.484333 0)
(11.3292 -0.714005 0)
(11.0457 -0.902452 0)
(10.855 -1.01978 0)
(10.5941 -1.20263 0)
(10.4428 -1.31593 0)
(10.3648 -1.3637 0)
(10.2447 -1.43082 0)
(10.1494 -1.4744 0)
(10.1721 -1.41867 0)
(10.2858 -1.29818 0)
(10.4798 -1.15275 0)
(10.7273 -1.00626 0)
(11.0046 -0.844886 0)
(11.3458 -0.626734 0)
(11.733 -0.37243 0)
(12.0746 -0.149353 0)
(0.903123 -0.00203106 0)
(2.4037 -0.00964011 0)
(3.56722 -0.0158418 0)
(4.40876 -0.0258165 0)
(4.97478 -0.0497499 0)
(5.358 -0.0838118 0)
(5.7004 -0.0990609 0)
(6.12732 -0.0785429 0)
(6.64648 -0.0572759 0)
(7.14634 -0.0948829 0)
(7.5777 -0.1948 0)
(8.00964 -0.292236 0)
(8.43254 -0.330007 0)
(8.81337 -0.267359 0)
(9.26977 -0.0903111 0)
(9.78885 0.101563 0)
(10.2006 0.181898 0)
(10.4021 0.127706 0)
(10.5266 0.0346332 0)
(10.78 0.00612706 0)
(11.1034 0.0178911 0)
(11.4157 0.0502068 0)
(11.5474 -0.0251559 0)
(11.4778 -0.231097 0)
(11.487 -0.369736 0)
(11.6283 -0.405074 0)
(11.5101 -0.55928 0)
(11.1471 -0.820116 0)
(10.9416 -0.94897 0)
(10.7069 -1.10044 0)
(10.4882 -1.26192 0)
(10.4 -1.33966 0)
(10.3234 -1.4098 0)
(10.2187 -1.49849 0)
(10.193 -1.51099 0)
(10.2792 -1.42365 0)
(10.462 -1.28596 0)
(10.7142 -1.13793 0)
(10.9822 -0.995087 0)
(11.2915 -0.814477 0)
(11.6691 -0.572477 0)
(12.0335 -0.329179 0)
(12.3411 -0.12686 0)
(0.921307 -0.00191367 0)
(2.42468 -0.0078801 0)
(3.5765 -0.0130325 0)
(4.42119 -0.0177999 0)
(5.01479 -0.0321866 0)
(5.4246 -0.0649477 0)
(5.73334 -0.100444 0)
(6.07348 -0.0972702 0)
(6.53177 -0.050685 0)
(7.05353 -0.0224348 0)
(7.52929 -0.0736738 0)
(7.96782 -0.181201 0)
(8.41578 -0.280052 0)
(8.79296 -0.327373 0)
(9.16906 -0.247003 0)
(9.66748 -0.038964 0)
(10.1567 0.143461 0)
(10.4557 0.18034 0)
(10.5629 0.100932 0)
(10.7099 0.044481 0)
(10.9941 0.0531365 0)
(11.3021 0.0776355 0)
(11.5494 0.0845308 0)
(11.5687 -0.0583351 0)
(11.4867 -0.265282 0)
(11.5769 -0.338385 0)
(11.6079 -0.410839 0)
(11.2881 -0.664978 0)
(10.9974 -0.876277 0)
(10.8129 -1.00189 0)
(10.5649 -1.17755 0)
(10.4239 -1.29512 0)
(10.3694 -1.36333 0)
(10.2868 -1.46319 0)
(10.2205 -1.54286 0)
(10.2641 -1.51514 0)
(10.4299 -1.40181 0)
(10.6878 -1.25756 0)
(10.9648 -1.12124 0)
(11.2517 -0.975632 0)
(11.6063 -0.769417 0)
(11.9863 -0.523759 0)
(12.3096 -0.303949 0)
(12.6168 -0.101917 0)
(0.930379 -0.00147952 0)
(2.43241 -0.00449932 0)
(3.57506 -0.00853138 0)
(4.41719 -0.0117188 0)
(5.03305 -0.0190028 0)
(5.4879 -0.0425085 0)
(5.81825 -0.0872645 0)
(6.10128 -0.119322 0)
(6.46329 -0.0909201 0)
(6.94243 -0.0191735 0)
(7.44645 0.0103953 0)
(7.90171 -0.0512106 0)
(8.35649 -0.158352 0)
(8.77891 -0.266968 0)
(9.10634 -0.319512 0)
(9.52122 -0.203252 0)
(10.0408 0.0239374 0)
(10.4543 0.173318 0)
(10.6334 0.161567 0)
(10.6998 0.0826565 0)
(10.8968 0.076568 0)
(11.1887 0.10827 0)
(11.4665 0.133653 0)
(11.626 0.0920246 0)
(11.5573 -0.107016 0)
(11.5224 -0.268582 0)
(11.6148 -0.30152 0)
(11.4239 -0.476199 0)
(11.0715 -0.747549 0)
(10.8798 -0.90936 0)
(10.6681 -1.07373 0)
(10.4668 -1.23493 0)
(10.3942 -1.31477 0)
(10.3405 -1.3972 0)
(10.2607 -1.51059 0)
(10.2525 -1.55682 0)
(10.3877 -1.48992 0)
(10.6448 -1.36168 0)
(10.9409 -1.22895 0)
(11.2261 -1.10564 0)
(11.5516 -0.942925 0)
(11.9303 -0.719485 0)
(12.2767 -0.49093 0)
(12.5777 -0.282628 0)
(12.8986 -0.0669611 0)
(0.928287 -0.000913265 0)
(2.42021 0.000295551 0)
(3.5593 -0.000618312 0)
(4.39783 -0.00377435 0)
(5.02938 -0.00813193 0)
(5.52331 -0.0222844 0)
(5.91225 -0.0602298 0)
(6.19966 -0.117508 0)
(6.48403 -0.139155 0)
(6.87155 -0.081364 0)
(7.35263 0.0110275 0)
(7.83049 0.0381377 0)
(8.27748 -0.0266574 0)
(8.73125 -0.132749 0)
(9.08714 -0.259476 0)
(9.4024 -0.297396 0)
(9.87341 -0.137455 0)
(10.37 0.0853801 0)
(10.6766 0.183181 0)
(10.7587 0.132191 0)
(10.8385 0.0832553 0)
(11.0802 0.125549 0)
(11.356 0.166953 0)
(11.5878 0.178263 0)
(11.6467 0.0724001 0)
(11.5292 -0.149931 0)
(11.5574 -0.2331 0)
(11.5108 -0.31016 0)
(11.1805 -0.565534 0)
(10.9262 -0.791946 0)
(10.7593 -0.956384 0)
(10.5402 -1.14682 0)
(10.4175 -1.26756 0)
(10.3765 -1.33472 0)
(10.3093 -1.43913 0)
(10.2602 -1.54142 0)
(10.3494 -1.54246 0)
(10.5937 -1.44716 0)
(10.9051 -1.32263 0)
(11.2057 -1.20956 0)
(11.5128 -1.08388 0)
(11.8715 -0.899115 0)
(12.2349 -0.678251 0)
(12.5454 -0.46788 0)
(12.8455 -0.253365 0)
(13.1694 -0.0264882 0)
(0.914346 -0.000379775 0)
(2.38381 0.00556151 0)
(3.52188 0.0105235 0)
(4.36192 0.00868888 0)
(5.00314 0.00491189 0)
(5.52462 -0.00440286 0)
(5.97111 -0.0293392 0)
(6.31698 -0.0867498 0)
(6.58352 -0.152468 0)
(6.88276 -0.157334 0)
(7.28728 -0.0700712 0)
(7.75882 0.0373107 0)
(8.21257 0.0612073 0)
(8.65618 -0.000492183 0)
(9.06738 -0.114419 0)
(9.3532 -0.254798 0)
(9.7069 -0.252808 0)
(10.2136 -0.0595093 0)
(10.6435 0.132336 0)
(10.8341 0.170085 0)
(10.8622 0.102839 0)
(10.9881 0.10621 0)
(11.2465 0.18387 0)
(11.4889 0.224996 0)
(11.6602 0.20651 0)
(11.605 0.0306685 0)
(11.498 -0.156775 0)
(11.5203 -0.195862 0)
(11.2983 -0.373476 0)
(10.9938 -0.634311 0)
(10.8206 -0.825977 0)
(10.6279 -1.022 0)
(10.4529 -1.19752 0)
(10.3959 -1.28276 0)
(10.3551 -1.36342 0)
(10.2938 -1.48231 0)
(10.3315 -1.55095 0)
(10.5458 -1.50976 0)
(10.8625 -1.40518 0)
(11.1816 -1.29625 0)
(11.4859 -1.19221 0)
(11.8197 -1.05026 0)
(12.183 -0.854232 0)
(12.5127 -0.648332 0)
(12.8027 -0.443836 0)
(13.1057 -0.215659 0)
(13.4223 0.0144693 0)
(0.888636 0.000264272 0)
(2.32225 0.0107775 0)
(3.456 0.0231198 0)
(4.30572 0.0262859 0)
(4.95466 0.0228266 0)
(5.49383 0.0155877 0)
(5.97808 -0.00010574 0)
(6.39652 -0.0413346 0)
(6.70694 -0.119113 0)
(6.9704 -0.187234 0)
(7.28705 -0.171765 0)
(7.70154 -0.0575775 0)
(8.15901 0.0589573 0)
(8.59517 0.0819705 0)
(9.01867 0.022519 0)
(9.35145 -0.109069 0)
(9.6074 -0.241806 0)
(10.026 -0.18605 0)
(10.5259 0.0161475 0)
(10.8596 0.155066 0)
(10.947 0.137276 0)
(10.968 0.0839463 0)
(11.1418 0.147829 0)
(11.3838 0.243478 0)
(11.5879 0.279711 0)
(11.6642 0.208738 0)
(11.5128 -0.013811 0)
(11.4629 -0.122769 0)
(11.3817 -0.206606 0)
(11.0909 -0.452121 0)
(10.8744 -0.679253 0)
(10.7069 -0.874325 0)
(10.5085 -1.08374 0)
(10.4056 -1.21959 0)
(10.3832 -1.29543 0)
(10.3421 -1.4042 0)
(10.3443 -1.51653 0)
(10.5121 -1.53961 0)
(10.8185 -1.47222 0)
(11.1515 -1.37322 0)
(11.4628 -1.27628 0)
(11.7772 -1.16652 0)
(12.1256 -1.00744 0)
(12.4715 -0.815053 0)
(12.769 -0.623522 0)
(13.0484 -0.413633 0)
(13.3539 -0.171894 0)
(13.656 0.0537996 0)
(0.85178 0.000992012 0)
(2.23736 0.0158575 0)
(3.35887 0.0354904 0)
(4.22433 0.0468597 0)
(4.88612 0.046146 0)
(5.4363 0.0398487 0)
(5.93932 0.0291291 0)
(6.41109 0.00481512 0)
(6.79394 -0.0574514 0)
(7.08257 -0.152042 0)
(7.35391 -0.217645 0)
(7.68642 -0.180572 0)
(8.10869 -0.0429839 0)
(8.55216 0.0779765 0)
(8.9696 0.10108 0)
(9.34018 0.0355037 0)
(9.59457 -0.112719 0)
(9.87642 -0.210041 0)
(10.348 -0.10564 0)
(10.7998 0.0765673 0)
(11.0232 0.148876 0)
(11.0391 0.0929938 0)
(11.0872 0.0819372 0)
(11.2868 0.197355 0)
(11.496 0.3 0)
(11.643 0.320008 0)
(11.5868 0.176649 0)
(11.4238 -0.0308852 0)
(11.3965 -0.0930593 0)
(11.1976 -0.267122 0)
(10.9441 -0.516445 0)
(10.7716 -0.721777 0)
(10.5812 -0.934953 0)
(10.4265 -1.12358 0)
(10.3909 -1.22604 0)
(10.3831 -1.32095 0)
(10.3813 -1.44908 0)
(10.501 -1.52989 0)
(10.7772 -1.51296 0)
(11.1136 -1.43703 0)
(11.4354 -1.3464 0)
(11.7411 -1.25221 0)
(12.0672 -1.12872 0)
(12.4161 -0.96118 0)
(12.7332 -0.781382 0)
(13.0035 -0.597752 0)
(13.2835 -0.374763 0)
(13.5864 -0.125236 0)
(13.8703 0.0925557 0)
(0.805079 0.00159015 0)
(2.13242 0.0204502 0)
(3.23294 0.0466491 0)
(4.11427 0.067267 0)
(4.79974 0.072745 0)
(5.36148 0.0679149 0)
(5.87036 0.0594125 0)
(6.36721 0.0465144 0)
(6.81363 0.00884007 0)
(7.16155 -0.07439 0)
(7.44399 -0.180772 0)
(7.72619 -0.241359 0)
(8.07578 -0.180996 0)
(8.50471 -0.0249063 0)
(8.93467 0.0965817 0)
(9.31645 0.114817 0)
(9.61102 0.0343412 0)
(9.82502 -0.113449 0)
(10.1688 -0.155996 0)
(10.6564 -0.0238334 0)
(11.0287 0.113039 0)
(11.1459 0.114662 0)
(11.1307 0.0478146 0)
(11.2214 0.094266 0)
(11.422 0.244081 0)
(11.5844 0.345013 0)
(11.6345 0.324452 0)
(11.4753 0.123689 0)
(11.3723 -0.0219475 0)
(11.2843 -0.115622 0)
(11.0366 -0.344788 0)
(10.8344 -0.569042 0)
(10.6563 -0.776616 0)
(10.4751 -0.992181 0)
(10.397 -1.14236 0)
(10.4069 -1.23758 0)
(10.4246 -1.36017 0)
(10.5124 -1.47929 0)
(10.7451 -1.51828 0)
(11.0698 -1.47795 0)
(11.3982 -1.40327 0)
(11.7045 -1.31763 0)
(12.0109 -1.21735 0)
(12.3465 -1.07942 0)
(12.6812 -0.914564 0)
(12.9632 -0.750491 0)
(13.2208 -0.564854 0)
(13.5082 -0.327149 0)
(13.7985 -0.0788117 0)
(14.0702 0.134253 0)
(0.750596 0.0020548 0)
(2.01156 0.0242218 0)
(3.08468 0.0558221 0)
(3.97641 0.085078 0)
(4.69655 0.0994566 0)
(5.27912 0.0975374 0)
(5.7912 0.0897797 0)
(6.28902 0.0826007 0)
(6.77132 0.0656882 0)
(7.17882 0.0119163 0)
(7.50464 -0.0882753 0)
(7.79059 -0.203075 0)
(8.08251 -0.256211 0)
(8.45222 -0.171136 0)
(8.8883 -0.00178471 0)
(9.29683 0.11324 0)
(9.61901 0.117785 0)
(9.84446 0.0227602 0)
(10.0703 -0.100022 0)
(10.4749 -0.0848834 0)
(10.9371 0.0483581 0)
(11.2098 0.119609 0)
(11.2441 0.0603379 0)
(11.2379 0.0100773 0)
(11.3716 0.113453 0)
(11.5461 0.277113 0)
(11.6392 0.361125 0)
(11.5815 0.281029 0)
(11.4023 0.0710893 0)
(11.3321 -0.030191 0)
(11.1523 -0.189714 0)
(10.9147 -0.420475 0)
(10.7292 -0.626944 0)
(10.5453 -0.841906 0)
(10.4226 -1.03435 0)
(10.421 -1.15395 0)
(10.4625 -1.26509 0)
(10.5391 -1.3962 0)
(10.727 -1.48365 0)
(11.0256 -1.48774 0)
(11.352 -1.43941 0)
(11.6608 -1.36775 0)
(11.9558 -1.28132 0)
(12.2691 -1.16795 0)
(12.6057 -1.02146 0)
(12.9108 -0.869498 0)
(13.1651 -0.716938 0)
(13.4286 -0.520616 0)
(13.7165 -0.274956 0)
(13.9912 -0.0320203 0)
(14.2582 0.181135 0)
(0.690044 0.00238683 0)
(1.87907 0.0271792 0)
(2.92227 0.0628438 0)
(3.81709 0.098629 0)
(4.57602 0.123312 0)