/*--------------------------------*- C++ -*----------------------------------*\
| =========                 |                                                 |
| \\      /  F ield         | OpenFOAM: The Open Source CFD Toolbox           |
|  \\    /   O peration     | Version:  2412                                  |
|   \\  /    A nd           | Website:  www.openfoam.com                      |
|    \\/     M anipulation  |                                                 |
\*---------------------------------------------------------------------------*/
FoamFile
{
    version     2.0;
    format      ascii;
    arch        "LSB;label=32;scalar=64";
    class       volScalarField;
    location    "0.05";
    object      dpdt;
}
// * * * * * * * * * * * * * * * * * * * * * * * * * * * * * * * * * * * * * //

dimensions      [1 -1 -3 0 0 0 0];

internalField   nonuniform List<scalar> 
12008
(
81843.82513
81843.82525
81843.82533
81843.82424
81843.82179
81843.81798
81843.81279
81843.8062
81843.79819
81843.78872
81843.77773
81843.76511
81843.75072
81843.73439
81843.71594
81843.69515
81843.67177
81843.64555
81843.61619
81843.58334
81843.54667
81843.50582
81843.4604
81843.41004
81843.35438
81843.29308
81843.22587
81843.15257
81843.07313
81842.98766
81842.89657
81842.80054
81842.70062
81842.59825
81842.49526
81842.39383
81842.29638
81842.20549
81842.12378
81842.05382
81841.99797
81841.95827
81841.93635
81841.93328
81841.94952
81841.98484
81842.03844
81842.109
81842.19481
81842.29394
81842.40437
81842.52403
81842.65089
81842.78308
81842.91897
81843.05708
81843.19618
81843.33521
81843.47334
81843.60988
81843.74428
81843.87614
81844.00515
81844.13109
81844.25379
81844.37319
81844.48923
81844.6019
81844.7112
81844.81717
81844.91991
81845.01953
81845.11615
81845.20989
81845.30084
81845.38906
81845.47463
81845.55771
81845.6385
81845.71713
81845.79364
81845.86807
81845.94049
81846.01094
81846.07947
81846.14612
81846.21088
81846.27372
81846.33452
81846.39314
81846.44938
81846.50296
81846.55358
81846.60088
81846.64446
81846.68393
81846.71902
81846.74953
81846.77536
81846.79646
81846.81291
81846.82488
81846.83269
81846.83679
81846.83772
81846.83613
81846.83271
81846.82818
81846.82327
81846.81866
81846.81498
81846.81277
81846.81247
81846.81442
81846.81885
81846.82584
81846.83541
81846.84755
81846.86216
81846.87908
81846.89805
81846.9188
81846.94104
81846.96444
81846.98867
81847.0134
81847.03829
81847.06303
81847.0873
81847.11081
81847.13328
81847.15444
81847.17407
81847.19198
81847.20804
81847.22214
81847.2342
81847.24409
81847.25167
81847.25643
81843.82182
81843.8219
81843.82169
81843.82039
81843.81778
81843.81381
81843.80849
81843.80179
81843.79369
81843.78411
81843.77299
81843.76026
81843.74576
81843.72933
81843.71081
81843.69
81843.66666
81843.64054
81843.61136
81843.57881
81843.54256
81843.50226
81843.45755
81843.40807
81843.35345
81843.29336
81843.2275
81843.15567
81843.07776
81842.99384
81842.90422
81842.80952
81842.71067
81842.609
81842.50629
81842.40466
81842.30652
81842.21445
81842.13112
81842.05914
81842.00098
81841.95881
81841.93436
81841.92888
81841.94301
81841.97662
81842.02892
81842.09864
81842.18401
81842.28304
81842.39368
81842.51381
81842.64129
81842.7742
81842.91085
81843.04975
81843.18963
81843.32941
81843.46823
81843.60541
81843.74041
81843.8728
81844.00228
81844.12862
81844.25168
81844.37138
81844.48767
81844.60053
81844.70998
81844.81606
81844.91887
81845.01853
81845.11517
81845.2089
81845.29982
81845.38794
81845.47335
81845.5563
81845.63702
81845.71558
81845.79199
81845.86632
81845.93863
81846.00896
81846.07738
81846.14391
81846.20854
81846.27123
81846.33188
81846.39033
81846.44636
81846.49973
81846.5501
81846.59714
81846.64044
81846.67956
81846.71424
81846.74441
81846.7699
81846.79067
81846.80679
81846.81849
81846.82608
81846.83003
81846.83088
81846.8293
81846.82598
81846.82165
81846.81701
81846.81275
81846.80947
81846.80771
81846.80791
81846.8104
81846.81539
81846.82292
81846.83298
81846.84562
81846.86073
81846.87811
81846.89752
81846.91868
81846.94129
81846.96503
81846.98956
81847.01455
81847.03966
81847.06458
81847.08901
81847.11264
81847.1352
81847.15642
81847.1761
81847.19403
81847.21009
81847.22411
81847.23599
81847.24558
81847.25284
81847.25745
81843.81742
81843.81786
81843.81755
81843.81609
81843.81338
81843.80935
81843.80397
81843.79721
81843.78906
81843.77944
81843.76828
81843.75551
81843.741
81843.7246
81843.70615
81843.68547
81843.66235
81843.63655
81843.6078
81843.57582
81843.5403
81843.50089
81843.45724
81843.40899
81843.35576
81843.29719
81843.23292
81843.1627
81843.08635
81843.00377
81842.91518
81842.82105
81842.72217
81842.61971
81842.51538
81842.41137
81842.31016
81842.21443
81842.12701
81842.05073
81841.98819
81841.94177
81841.91345
81841.90477
81841.91665
81841.94902
81842.00104
81842.0713
81842.15795
81842.2588
81842.37159
81842.49402
81842.62388
81842.75915
81842.89803
81843.03898
81843.18071
81843.32213
81843.46238
81843.60078
81843.73682
81843.87008
81844.00027
81844.12718
81844.25067
81844.37071
81844.48725
81844.60027
81844.70983
81844.81597
81844.91879
81845.01841
81845.11495
81845.20855
81845.29933
81845.38737
81845.47251
81845.55501
81845.63552
81845.71393
81845.79014
81845.86429
81845.93643
81846.00662
81846.07491
81846.14134
81846.20591
81846.26856
81846.32918
81846.38761
81846.44363
81846.49697
81846.54732
81846.59433
81846.63747
81846.67635
81846.71084
81846.74072
81846.76584
81846.78618
81846.8018
81846.81293
81846.81993
81846.82326
81846.8235
81846.82134
81846.8175
81846.81271
81846.80773
81846.80325
81846.7999
81846.7982
81846.79859
81846.80144
81846.80691
81846.81495
81846.82559
81846.8389
81846.85474
81846.87287
81846.89304
81846.91497
81846.93832
81846.96277
81846.98796
81847.01355
81847.03921
81847.06461
81847.08945
81847.11343
81847.13628
81847.15774
81847.17761
81847.19569
81847.21184
81847.22591
81847.23774
81847.24723
81847.2544
81847.25906
81843.81245
81843.81338
81843.81321
81843.81173
81843.809
81843.80498
81843.79961
81843.79288
81843.78476
81843.77519
81843.7641
81843.75142
81843.73703
81843.72082
81843.70262
81843.68228
81843.65961
81843.63438
81843.60636
81843.57527
81843.54081
81843.50266
81843.46045
81843.41381
81843.36232
81843.30556
81843.2431
81843.17461
81843.09976
81843.01821
81842.92993
81842.83528
81842.73492
81842.62987
81842.52175
81842.41287
81842.30593
81842.20368
81842.10935
81842.02611
81841.95679
81841.90416
81841.87069
81841.85826
81841.86795
81841.89979
81841.95285
81842.02549
81842.11554
81842.22048
81842.33772
81842.4647
81842.59899
81842.73844
81842.88115
81843.02551
81843.1702
81843.31417
81843.45656
81843.59675
81843.73424
81843.86866
81843.99974
81844.12732
81844.25132
81844.3717
81844.48845
81844.60159
81844.71119
81844.8173
81844.92004
81845.0195
81845.11584
81845.20918
81845.29966
81845.3874
81845.47225
81845.55421
81845.63421
81845.71236
81845.78828
81845.86215
81845.93406
81846.00407
81846.07225
81846.13862
81846.20319
81846.26591
81846.32665
81846.38525
81846.44147
81846.49503
81846.5456
81846.59286
81846.63607
81846.6749
81846.70935
81846.73905
81846.76385
81846.78368
81846.79862
81846.8089
81846.81489
81846.81708
81846.81609
81846.81265
81846.80754
81846.80155
81846.7955
81846.79012
81846.78608
81846.78394
81846.78414
81846.78708
81846.79289
81846.80138
81846.81269
81846.82683
81846.84363
81846.8628
81846.88407
81846.90711
81846.93158
81846.95711
81846.98334
81847.00989
81847.03643
81847.06263
81847.08817
81847.11276
81847.13612
81847.15801
81847.17823
81847.1966
81847.21297
81847.22719
81847.23911
81847.24863
81847.25587
81847.26065
81843.8074
81843.8086
81843.80858
81843.80716
81843.80448
81843.8005
81843.79521
81843.78857
81843.78055
81843.77111
81843.76018
81843.74769
81843.73354
81843.71764
81843.69984
81843.68002
81843.65799
81843.63357
81843.60653
81843.57662
81843.54356
81843.50702
81843.46663
81843.42202
81843.37269
81843.31819
81843.25791
81843.19132
81843.11798
81843.03739
81842.94927
81842.85359
81842.75077
81842.64151
81842.52734
81842.41093
81842.29534
81842.18384
81842.07986
81841.98682
81841.90803
81841.84684
81841.80637
81841.78912
81841.79645
81841.82843
81841.88394
81841.96093
81842.05669
81842.16814
81842.29223
81842.42604
81842.56686
81842.71233
81842.86045
81843.00957
81843.15833
81843.3057
81843.45091
81843.59338
81843.73269
81843.86853
81844.00067
81844.12902
81844.25356
81844.37428
81844.49121
81844.60442
81844.71398
81844.81997
81844.9225
81845.02169
81845.11767
81845.21061
81845.30065
81845.38791
81845.47224
81845.55361
81845.63301
81845.71075
81845.78625
81845.85976
81845.93137
81846.00118
81846.06923
81846.13557
81846.20021
81846.26307
81846.32406
81846.38297
81846.43957
81846.49355
81846.54456
81846.59227
81846.63583
81846.67486
81846.70937
81846.73897
81846.76345
81846.78271
81846.79679
81846.80593
81846.81049
81846.811
81846.80815
81846.80272
81846.79559
81846.78766
81846.77981
81846.77289
81846.76763
81846.7646
81846.7643
81846.76715
81846.77322
81846.78221
81846.79431
81846.80951
81846.82754
81846.84808
81846.8708
81846.89533
81846.9213
81846.94829
81846.97591
81847.00378
81847.03154
81847.05885
81847.08537
81847.11082
81847.13491
81847.15742
81847.17816
81847.19695
81847.21363
81847.22807
81847.24015
81847.24978
81847.25711
81847.26199
81843.80238
81843.80366
81843.80375
81843.80241
81843.79981
81843.79593
81843.79076
81843.78426
81843.77641
81843.76717
81843.75647
81843.74425
81843.73045
81843.71497
81843.69771
81843.67856
81843.65736
81843.63393
81843.60811
81843.57967
81843.5483
81843.51369
81843.47547
81843.43339
81843.38667
81843.33463
81843.27681
81843.21275
81843.14165
81843.06233
81842.97417
81842.87697
81842.77066
81842.65566
81842.53343
81842.40679
81842.27954
81842.15557
81842.03876
81841.93281
81841.8415
81841.76888
81841.71912
81841.69563
81841.70032
81841.73331
81841.79303
81841.87671
81841.98081
81842.10146
81842.2351
81842.37832
81842.52797
81842.68145
81842.83665
81842.99187
81843.14574
81843.29733
81843.44596
81843.59115
81843.73258
81843.87001
81844.00332
81844.13251
81844.2576
81844.37862
81844.49567
81844.60886
81844.71827
81844.82401
81844.92618
81845.02494
81845.12043
81845.21281
81845.30226
81845.38895
81845.47231
81845.55297
81845.6319
81845.70902
81845.78396
81845.85701
81845.92826
81845.9978
81846.06571
81846.13203
81846.19677
81846.25987
81846.32121
81846.38059
81846.43776
81846.49238
81846.54408
81846.5925
81846.63664
81846.67604
81846.7108
81846.74044
81846.76466
81846.7833
81846.79637
81846.80405
81846.80673
81846.80499
81846.79957
81846.79138
81846.78142
81846.77073
81846.76034
81846.75121
81846.74415
81846.73981
81846.73869
81846.74131
81846.7476
81846.75719
81846.7703
81846.78682
81846.80641
81846.82867
81846.85323
81846.87966
81846.90752
81846.93636
81846.96575
81846.9953
81847.02462
81847.05334
81847.08113
81847.10768
81847.13272
81847.15604
81847.17744
81847.19677
81847.21387
81847.22861
81847.24091
81847.2507
81847.25813
81847.26307
81843.79731
81843.79859
81843.79872
81843.79746
81843.79497
81843.79123
81843.78621
81843.77991
81843.77228
81843.76328
81843.75287
81843.74101
81843.72763
81843.71268
81843.69607
81843.67772
81843.65748
81843.63521
81843.61079
81843.58412
81843.55469
81843.52226
81843.48641
81843.44716
81843.40383
81843.35508
81843.30048
81843.23938
81843.1707
81843.09312
81843.00542
81842.90674
81842.79642
81842.67436
81842.54173
81842.40171
81842.25938
81842.11951
81841.98643
81841.86411
81841.75665
81841.66898
81841.60683
81841.57521
81841.57691
81841.61204
81841.67794
81841.77075
81841.8863
81842.01985
81842.1666
81842.32228
81842.4834
81842.64708
81842.811
81842.9735
81843.13337
81843.28986
81843.44241
81843.59067
81843.7344
81843.87351
81844.00805
81844.13808
81844.26367
81844.38492
81844.50199
81844.61502
81844.72412
81844.82944
81844.9311
81845.02926
81845.12408
81845.21573
81845.30439
81845.39024
81845.47252
81845.55227
81845.63065
81845.70696
81845.78123
81845.8537
81845.92449
81845.99371
81846.06144
81846.12774
81846.19261
81846.25601
81846.31782
81846.37783
81846.43577
81846.49126
81846.5439
81846.5933
81846.63825
81846.67829
81846.71356
81846.74344
81846.76751
81846.78553
81846.79743
81846.80334
81846.80365
81846.799
81846.79024
81846.77842
81846.76472
81846.75038
81846.73661
81846.72454
81846.71509
81846.709
81846.70681
81846.70908
81846.71564
81846.72602
81846.74039
81846.75857
81846.78011
81846.80453
81846.83137
81846.86013
81846.89032
81846.92143
81846.95299
81846.98457
81847.01578
81847.04622
81847.07554
81847.10344
81847.12964
81847.15393
81847.17615
81847.19613
81847.21376
81847.2289
81847.24149
81847.25149
81847.25904
81847.264
81843.79209
81843.79334
81843.79349
81843.7923
81843.78993
81843.78634
81843.78152
81843.77543
81843.76805
81843.75934
81843.74927
81843.73781
81843.72492
81843.71056
81843.69471
81843.67726
81843.6581
81843.63706
81843.61402
81843.58921
81843.56216
81843.53236
81843.49977
81843.4636
81843.42354
81843.37868
81843.32813
81843.27089
81843.20561
81843.13061
81843.04409
81842.94438
81842.83001
81842.6999
81842.55444
81842.39723
81842.2358
81842.07627
81841.92335
81841.78095
81841.65309
81841.54561
81841.46675
81841.42431
81841.42248
81841.46066
81841.53548
81841.64193
81841.77359
81841.92411
81842.08756
81842.25889
81842.43408
81842.60999
81842.78431
81842.95546
81843.1224
81843.28447
81843.44127
81843.59269
81843.73876
81843.8796
81844.01534
81844.1461
81844.27204
81844.39337
81844.51029
81844.62299
81844.73162
81844.83633
81844.93729
81845.03466
81845.12861
81845.21933
81845.30699
81845.39147
81845.47276
81845.55161
81845.62905
81845.70438
81845.77781
81845.84956
81845.91977
81845.98857
81846.05605
81846.1223
81846.18734
81846.25111
81846.3135
81846.37429
81846.4332
81846.48983
81846.54372
81846.59432
81846.64034
81846.68139
81846.7175
81846.7479
81846.77202
81846.78946
81846.80005
81846.80387
81846.8013
81846.79303
81846.78005
81846.76361
81846.74512
81846.72609
81846.708
81846.69217
81846.67971
81846.67145
81846.66796
81846.66983
81846.67676
81846.68822
81846.70423
81846.72451
81846.74847
81846.77556
81846.8052
81846.83681
81846.86981
81846.90363
81846.93775
81846.97174
81847.00517
81847.03763
81847.06875
81847.09822
81847.12578
81847.15122
81847.17439
81847.19516
81847.21342
81847.22906
81847.24202
81847.25227
81847.25996
81847.26494
81843.78662
81843.78785
81843.78802
81843.7869
81843.78464
81843.78121
81843.77658
81843.77073
81843.76361
81843.75522
81843.74552
81843.7345
81843.72213
81843.70838
81843.69328
81843.67681
81843.65886
81843.63922
81843.61791
81843.59495
81843.5706
81843.54372
81843.51395
81843.48135
81843.44527
81843.40485
81843.35908
81843.30669
81843.24603
81843.17497
81843.09101
81842.99146
81842.87376
81842.73519
81842.5744
81842.39494
81842.20951
81842.02635
81841.85015
81841.68405
81841.53089
81841.39711
81841.29517
81841.23805
81841.23174
81841.27505
81841.36318
81841.48842
81841.64171
81841.81443
81841.99915
81842.18986
81842.38203
81842.57236
81842.75866
81842.93949
81843.11408
81843.28204
81843.44332
81843.59805
81843.74649
81843.88892
81844.02563
81844.15689
81844.28298
81844.40417
81844.52074
81844.63289
81844.74084
81844.84475
81844.9448
81845.04117
81845.13405
81845.22362
81845.3099
81845.3927
81845.47266
81845.55082
81845.62693
81845.70104
81845.77341
81845.84424
81845.91371
81845.98196
81846.04912
81846.11528
81846.18048
81846.24468
81846.30775
81846.36949
81846.42959
81846.48765
81846.54322
81846.59511
81846.64235
81846.685
81846.72245
81846.75376
81846.77819
81846.79517
81846.80438
81846.80581
81846.79979
81846.78709
81846.76887
81846.74663
81846.72212
81846.6972
81846.67369
81846.65319
81846.63704
81846.62619
81846.62125
81846.62277
81846.63021
81846.64323
81846.66138
81846.68431
81846.71131
81846.74168
81846.77471
81846.80973
81846.84606
81846.88306
81846.92019
81846.95697
81846.99295
81847.02771
81847.06088
81847.09215
81847.12127
81847.14804
81847.17232
81847.19402
81847.21302
81847.22926
81847.24266
81847.2532
81847.26104
81847.26604
81843.78087
81843.78207
81843.78225
81843.78121
81843.77906
81843.77578
81843.77136
81843.76573
81843.75889
81843.75081
81843.74148
81843.73091
81843.7191
81843.70603
81843.69177
81843.67621
81843.65952
81843.64125
81843.62184
81843.60136
81843.57888
81843.55457
81843.52818
81843.49941
81843.46772
81843.4323
81843.3921
81843.34568
81843.29114
81843.22585
81843.14649
81843.04914
81842.92994
81842.78366
81842.60541
81842.39601
81842.18019
81841.96946
81841.76741
81841.57488
81841.3912
81841.22209
81841.08765
81841.01017
81840.99777
81841.04903
81841.15677
81841.30834
81841.49065
81841.69214
81841.9035
81842.11774
81842.3299
81842.53675
81842.73633
81842.92761
81843.11021
81843.28419
81843.44986
81843.6077
81843.75822
81843.90194
81844.03933
81844.1708
81844.29675
81844.41753
81844.53349
81844.64485
81844.75188
81844.85476
81844.95367
81845.04879
81845.14037
81845.22867
81845.31272
81845.39385
81845.47268
81845.54941
81845.62394
81845.6966
81845.76766
81845.83735
81845.90587
81845.97343
81846.04017
81846.10619
81846.17155
81846.23622
81846.30006
81846.36289
81846.42437
81846.48423
81846.54217
81846.59511
81846.64357
81846.68883
81846.72827
81846.76099
81846.78612
81846.80286
81846.81068
81846.8094
81846.79932
81846.78127
81846.75659
81846.72714
81846.69509
81846.66282
81846.63258
81846.6064
81846.58584
81846.57201
81846.56554
81846.56674
81846.57517
81846.59044
81846.61134
81846.63761
81846.66837
81846.70274
81846.73986
81846.77893
81846.81917
81846.85986
81846.90045
81846.94042
81846.97929
81847.01665
81847.05213
81847.08543
81847.1163
81847.14458
81847.17014
81847.19289
81847.21275
81847.22966
81847.24356
81847.25444
81847.26245
81847.26746
81843.77479
81843.77595
81843.77614
81843.77517
81843.77314
81843.77002
81843.76578
81843.76038
81843.7538
81843.74602
81843.73705
81843.72694
81843.71567
81843.70321
81843.6898
81843.67495
81843.65916
81843.64316
81843.62539
81843.60612
81843.58584
81843.56427
81843.54119
81843.51631
81843.48919
81843.45915
81843.42517
81843.38578
81843.33892
81843.28155
81843.20952
81843.11748
81843.00006
81842.84873
81842.65141
81842.40051
81842.14388
81841.90324
81841.67554
81841.4572
81841.23872
81841.0222
81840.84068
81840.73089
81840.70876
81840.77433
81840.91165
81841.10033
81841.32153
81841.55993
81841.80412
81842.04626
81842.28131
81842.50642
81842.72018
81842.92223
81843.1128
81843.2925
81843.46214
81843.6226
81843.77471
81843.91924
81844.05687
81844.18815
81844.31359
81844.43362
81844.54868
81844.65897
81844.76482
81844.8664
81844.9639
81845.05748
81845.14735
81845.23375
81845.31617
81845.39499
81845.4723
81845.54714
81845.61981
81845.6907
81845.76015
81845.82844
81845.89583
81845.96255
81846.02877
81846.09462
81846.16013
81846.22529
81846.28998
81846.354
81846.417
81846.47859
81846.53845
81846.59399
81846.64538
81846.69316
81846.73498
81846.76969
81846.79603
81846.81286
81846.81936
81846.8151
81846.80027
81846.77573
81846.7431
81846.70467
81846.66324
81846.62181
81846.5833
81846.55023
81846.5245
81846.50736
81846.49938
81846.50057
81846.51082
81846.52896
81846.55351
81846.58401
81846.61942
81846.65863
81846.70062
81846.74447
81846.78925
81846.8342
81846.87873
81846.9223
81846.96442
81847.00469
81847.04274
81847.0783
81847.11113
81847.14108
81847.16806
81847.19199
81847.21281
81847.23047
81847.24493
81847.25618
81847.26437
81847.26941
81843.76835
81843.76944
81843.76961
81843.76871
81843.7668
81843.76381
81843.75973
81843.75454
81843.7482
81843.74069
81843.73202
81843.72234
81843.71161
81843.69945
81843.68641
81843.6733
81843.65864
81843.64279
81843.62637
81843.60896
81843.5907
81843.57152
81843.55135
81843.53003
81843.50727
81843.48257
81843.45508
81843.42342
81843.38559
81843.33832
81843.27684
81843.19403
81843.08381
81842.93423
81842.71654
81842.40975
81842.09448
81841.82737
81841.58112
81841.34539
81841.09098
81840.80612
81840.54224
81840.37974
81840.34908
81840.44041
81840.62305
81840.86435
81841.13741
81841.42252
81841.70636
81841.98072
81842.24109
81842.48553
81842.71367
81842.92612
81843.12401
81843.30865
81843.48144
81843.64371
81843.79667
81843.94135
81844.07862
81844.20919
81844.33368
81844.4526
81844.56638
81844.67531
81844.77969
81844.87969
81844.97553
81845.06735
81845.15511
81845.23884
81845.31908
81845.39643
81845.47129
81845.54374
81845.61416
81845.68295
81845.75049
81845.81716
81845.88327
81845.94905
81846.0147
81846.08033
81846.14601
81846.2117
81846.27729
81846.34259
81846.40724
81846.4708
81846.53284
81846.59166
81846.64677
81846.69775
81846.74274
81846.78019
81846.80839
81846.8258
81846.83114
81846.82364
81846.80326
81846.77087
81846.7284
81846.67875
81846.62553
81846.57271
81846.52404
81846.48271
81846.45101
81846.43031
81846.42106
81846.42302
81846.43598
81846.45771
81846.48725
81846.52313
81846.56426
81846.60931
81846.65707
81846.70647
81846.7565
81846.80631
81846.8553
81846.90291
81846.94865
81846.99212
81847.03301
81847.07104
81847.10602
81847.13782
81847.16635
81847.19156
81847.21342
81847.2319
81847.24697
81847.25863
81847.26702
81847.27208
81843.76151
81843.76252
81843.76263
81843.76172
81843.75992
81843.75707
81843.75313
81843.74811
81843.74199
81843.73473
81843.72619
81843.71646
81843.70605
81843.69511
81843.68274
81843.66933
81843.65542
81843.64062
81843.62514
81843.60891
81843.59204
81843.57457
81843.55655
81843.53799
81843.51882
81843.4988
81843.47738
81843.45346
81843.42531
81843.3898
81843.3418
81843.27285
81843.17656
81843.04119
81842.81982
81842.45042
81842.0316
81841.73984
81841.47914
81841.24197
81840.9526
81840.56662
81840.16976
81839.93008
81839.89574
81840.0337
81840.28717
81840.60321
81840.94473
81841.28783
81841.61819
81841.92836
81842.21541
81842.47912
81842.72079
81842.94239
81843.14618
81843.33437
81843.50901
81843.67194
81843.82473
81843.96869
81844.10487
81844.23412
81844.35714
81844.47448
81844.58661
81844.69385
81844.79644
81844.89458
81844.98851
81845.07846
81845.16308
81845.24431
81845.32217
81845.39711
81845.46916
81845.53885
81845.60663
81845.673
81845.73842
81845.80334
81845.86808
81845.93291
81845.998
81846.06345
81846.12933
81846.1956
81846.26217
81846.32886
81846.39533
81846.46121
81846.52584
81846.58815
81846.64747
81846.70267
81846.75183
81846.79297
81846.82394
81846.8426
81846.8471
81846.83613
81846.80928
81846.76735
81846.71263
81846.64882
81846.58073
81846.51362
81846.45245
81846.40125
81846.36279
81846.33848
81846.32855
81846.33236
81846.34895
81846.37585
81846.41206
81846.45468
81846.50277
81846.55481
81846.60935
81846.6652
81846.72123
81846.77654
81846.83052
81846.8826
81846.93232
81846.97931
81847.02328
81847.064
81847.10129
81847.13507
81847.16526
81847.19186
81847.21484
81847.2342
81847.24992
81847.26203
81847.27064
81847.27573
81843.75424
81843.75515
81843.75517
81843.75418
81843.75231
81843.7495
81843.74563
81843.74064
81843.73452
81843.72738
81843.71932
81843.71014
81843.69974
81843.68853
81843.67666
81843.66379
81843.65018
81843.63575
81843.62059
81843.60475
81843.58835
81843.57152
81843.55447
81843.53739
81843.52049
81843.50386
81843.48739
81843.4704
81843.45164
81843.42824
81843.39586
81843.34501
81843.27498
81843.20032
81843.01109
81842.50003
81841.86193
81841.58042
81841.34524
81841.17192
81840.87535
81840.34534
81839.70984
81839.33801
81839.31041
81839.54013
81839.90468
81840.32553
81840.75546
81841.16828
81841.55091
81841.89871
81842.21189
81842.49309
81842.74594
81842.97426
81843.18164
81843.37128
81843.54596
81843.708
81843.85934
81844.00152
81844.13574
81844.26296
81844.38393
81844.49922
81844.6093
81844.71449
81844.81499
81844.91093
81845.0025
81845.08981
81845.17235
81845.24985
81845.32501
81845.3968
81845.46561
81845.53212
81845.59695
81845.6607
81845.72394
81845.78712
81845.85059
81845.91457
81845.9792
81846.04457
81846.11073
81846.17764
81846.24521
81846.31334
81846.38175
81846.45008
81846.51758
81846.58386
81846.64813
81846.70846
81846.76281
81846.80878
81846.84363
81846.86451
81846.86874
81846.85419
81846.81984
81846.76628
81846.69616
81846.61431
81846.52721
81846.44204
81846.36542
81846.3025
81846.25654
81846.22888
81846.21929
81846.22643
81846.24828
81846.28277
81846.32724
81846.37835
81846.43494
81846.49532
81846.5578
81846.62106
81846.68389
81846.74535
81846.80486
81846.86185
81846.9159
81846.96668
81847.01395
81847.05753
81847.09728
81847.13315
81847.16512
81847.19318
81847.21735
81847.23764
81847.25406
81847.26663
81847.27547
81847.28056
81843.74652
81843.7473
81843.74723
81843.74618
81843.7442
81843.74128
81843.73738
81843.73243
81843.72639
81843.71927
81843.71115
81843.70208
81843.69198
81843.68089
81843.66892
81843.65598
81843.64212
81843.62736
81843.61171
81843.59527
81843.57819
81843.56071
81843.54321
81843.52613
81843.51
81843.49537
81843.48262
81843.47162
81843.46158
81843.45026
81843.4336
81843.39858
81843.33963
81843.3735
81843.38869
81842.53517
81841.51052
81841.32299
81841.17125
81841.1663
81840.89101
81840.12323
81839.12302
81838.51773
81838.53752
81838.94305
81839.48752
81840.05071
81840.58989
81841.08232
81841.51981
81841.90366
81842.2394
81842.53382
81842.79362
81843.02479
81843.23241
81843.42069
81843.59307
81843.75233
81843.90069
81844.03985
81844.17115
81844.29556
81844.41387
81844.52663
81844.63428
81844.73711
81844.83527
81844.92881
81845.01766
81845.10158
81845.18104
81845.25592
81845.32728
81845.39523
81845.46033
81845.52335
81845.58507
81845.64624
81845.70744
81845.76913
81845.83159
81845.89497
81845.95936
81846.02478
81846.09129
81846.1589
81846.22739
81846.2969
81846.36722
81846.438
81846.5086
81846.57927
81846.64912
81846.71545
81846.77612
81846.82827
81846.86846
81846.89294
81846.89788
81846.87995
81846.83707
81846.76928
81846.67964
81846.57447
81846.46276
81846.35453
81846.25876
81846.18204
81846.12806
81846.09782
81846.09028
81846.103
81846.13285
81846.17749
81846.23199
81846.29401
81846.36096
81846.43122
81846.50292
81846.57463
81846.64508
81846.71335
81846.77889
81846.84119
81846.89988
81846.95469
81847.00545
81847.05204
81847.09437
81847.13243
81847.16624
81847.19583
81847.22124
81847.2425
81847.25964
81847.27268
81847.28173
81847.28681
81843.7383
81843.73895
81843.73877
81843.73766
81843.73565
81843.73269
81843.72871
81843.72371
81843.71764
81843.71052
81843.70233
81843.69311
81843.68281
81843.67142
81843.65896
81843.64539
81843.63066
81843.61477
81843.59771
81843.57961
81843.5607
81843.5414
81843.52233
81843.50428
81843.48821
81843.47517
81843.46614
81843.46147
81843.46118
81843.46343
81843.46441
81843.43017
81843.33705
81843.51487
81844.25387
81842.818
81842.06794
81841.04708
81841.09296
81841.32523
81840.92224
81839.69551
81838.29073
81837.37881
81837.53018
81838.26454
81839.06572
81839.81284
81840.47964
81841.05553
81841.54412
81841.95696
81842.30738
81842.60757
81842.86782
81843.09641
81843.29988
81843.48329
81843.6506
81843.80491
81843.94858
81844.08341
81844.21075
81844.33157
81844.4466
81844.55637
81844.66126
81844.76145
81844.85709
81844.94814
81845.03334
81845.11421
81845.18983
81845.2612
81845.32837
81845.39208
81845.45316
81845.5126
81845.57138
81845.63029
81845.6899
81845.75057
81845.81246
81845.8756
81845.93998
81846.00554
81846.07238
81846.14087
81846.2098
81846.28042
81846.35241
81846.42549
81846.49924
81846.57455
81846.65039
81846.72355
81846.79175
81846.8517
81846.89919
81846.92927
81846.9366
81846.91605
81846.86379
81846.77869
81846.66402
81846.52824
81846.38416
81846.2462
81846.1267
81846.03398
81845.97199
81845.94086
81845.9381
81845.95973
81846.00123
81846.05879
81846.12609
81846.20197
81846.28137
81846.36318
81846.44546
81846.52668
81846.60558
81846.68128
81846.75332
81846.82128
81846.88486
81846.9439
81846.9983
81847.04799
81847.09298
81847.13329
81847.16899
81847.20015
81847.22682
81847.24907
81847.26692
81847.28041
81847.28965
81847.2947
81843.72957
81843.73005
81843.72974
81843.72853
81843.72645
81843.72341
81843.71936
81843.71425
81843.70804
81843.70072
81843.69227
81843.68266
81843.67186
81843.65981
81843.64644
81843.63167
81843.6154
81843.59757
81843.57825
81843.55763
81843.53615
81843.51454
81843.4938
81843.47524
81843.46041
81843.45107
81843.4491
81843.45594
81843.47319
81843.50173
81843.53026
81843.52155
81843.4309
81843.56802
81846.21098
81844.57851
0
0
81841.38694
81842.07292
81842.13992
81840.25954
81837.62885
81835.12107
81836.19474
81837.63256
81838.71917
81839.66508
81840.46603
81841.12023
81841.64585
81842.07275
81842.42448
81842.71933
81842.97118
81843.19034
81843.38439
81843.55892
81843.71812
81843.86515
81844.00238
81844.13155
81844.25392
81844.3704
81844.48162
81844.58801
81844.68983
81844.78714
81844.87999
81844.96785
81845.0504
81845.12669
81845.19854
81845.26555
81845.32808
81845.38725
81845.44426
81845.50039
81845.55673
81845.61407
81845.67282
81845.73312
81845.795
81845.85829
81845.92283
81845.98847
81846.05548
81846.12503
81846.19327
81846.26446
81846.3376
81846.41245
81846.48919
81846.56925
81846.65117
81846.73179
81846.8088
81846.87852
81846.93587
81846.97448
81846.98696
81846.96561
81846.9037
81846.7977
81846.65061
81846.47387
81846.28645
81846.10988
81845.96113
81845.85046
81845.78153
81845.75265
81845.75895
81845.79415
81845.85177
81845.92578
81846.01043
81846.10304
81846.19707
81846.29219
81846.38644
81846.47823
81846.56635
81846.65004
81846.72899
81846.80288
81846.87155
81846.93493
81846.99304
81847.0459
81847.09357
81847.13615
81847.17374
81847.20645
81847.23438
81847.25759
81847.27613
81847.29005
81847.29944
81847.30444
81843.72027
81843.72057
81843.7201
81843.71874
81843.71651
81843.71332
81843.7091
81843.70379
81843.69734
81843.6897
81843.68081
81843.67062
81843.65904
81843.64594
81843.63121
81843.61467
81843.59622
81843.57584
81843.55371
81843.53028
81843.50632
81843.48302
81843.46194
81843.44503
81843.43457
81843.43321
81843.44396
81843.47011
81843.51718
81843.58867
81843.68418
81843.83057
81844.33382
81846.33585
81847.86585
0
0
4.225385981e-08
0
0
0
81842.91453
81839.90024
81834.63571
81833.84829
81837.33107
81838.64396
81839.70852
81840.62034
81841.31481
81841.8477
81842.2629
81842.59632
81842.87122
81843.10396
81843.30587
81843.4848
81843.6463
81843.79434
81843.93185
81844.06097
81844.18324
81844.29976
81844.41125
81844.51823
81844.62094
81844.71951
81844.81388
81844.90401
81844.98788
81845.06692
81845.13951