/*--------------------------------*- C++ -*----------------------------------*\
| =========                 |                                                 |
| \\      /  F ield         | OpenFOAM: The Open Source CFD Toolbox           |
|  \\    /   O peration     | Version:  2412                                  |
|   \\  /    A nd           | Website:  www.openfoam.com                      |
|    \\/     M anipulation  |                                                 |
\*---------------------------------------------------------------------------*/
FoamFile
{
    version     2.0;
    format      ascii;
    arch        "LSB;label=32;scalar=64";
    class       surfaceVectorField;
    location    "0.05";
    object      rhoUf;
}
// * * * * * * * * * * * * * * * * * * * * * * * * * * * * * * * * * * * * * //

dimensions      [1 -2 -1 0 0 0 0];

internalField   nonuniform List<vector> 
23538
(
(-6.34970593e-06 -4.802887807e-05 0)
(-1.694894835e-05 -7.829005307e-05 0)
(4.619786241e-05 -6.161057582e-05 0)
(2.146552263e-05 -0.0001368301233 0)
(0.0001107205461 -6.247546381e-05 0)
(9.708274456e-05 -0.0001479466254 0)
(0.0001683014067 -6.014879468e-05 0)
(0.0001701613531 -0.0001399664664 0)
(0.0002126352162 -5.701403434e-05 0)
(0.0002231091928 -0.0001252857903 0)
(0.0002424942056 -5.375963352e-05 0)
(0.0002520148032 -0.0001089632251 0)
(0.0002580783611 -5.049297468e-05 0)
(0.0002563336523 -9.246618878e-05 0)
(0.0002594903034 -4.710265671e-05 0)
(0.0002361284124 -7.572963512e-05 0)
(0.000246420422 -4.347302302e-05 0)
(0.0001910854039 -5.835993814e-05 0)
(0.0002183326785 -3.954883688e-05 0)
(0.0001205192342 -4.014201362e-05 0)
(0.0001747434577 -3.533274466e-05 0)
(2.378021744e-05 -2.1150498e-05 0)
(0.0001154459484 -3.086613766e-05 0)
(-9.934123921e-05 -1.692079298e-06 0)
(4.065027004e-05 -2.621350668e-05 0)
(-0.0002483047548 1.777932941e-05 0)
(-4.894436042e-05 -2.144897237e-05 0)
(-0.0004216758769 3.673699331e-05 0)
(-0.0001521420828 -1.664683323e-05 0)
(-0.0006171029981 5.464519956e-05 0)
(-0.0002672750165 -1.187723366e-05 0)
(-0.0008313190899 7.099295951e-05 0)
(-0.0003922517285 -7.203223614e-06 0)
(-0.001060233075 8.531955073e-05 0)
(-0.0005246285739 -2.677179946e-06 0)
(-0.001299058226 9.723747118e-05 0)
(-0.0006617055332 1.664683648e-06 0)
(-0.001542486776 0.0001064605336 0)
(-0.0008006568552 5.808283399e-06 0)
(-0.001784895575 0.0001128346503 0)
(-0.0009386787028 9.763249821e-06 0)
(-0.002020635124 0.0001163595565 0)
(-0.001073149171 1.356306929e-05 0)
(-0.002244298337 0.0001171950798 0)
(-0.001201784949 1.72644786e-05 0)
(-0.002451027455 0.000115663799 0)
(-0.001322788959 2.094260535e-05 0)
(-0.002636791 0.0001122303484 0)
(-0.001434950734 2.468064768e-05 0)
(-0.002798613385 0.0001074664963 0)
(-0.001537694046 2.855648409e-05 0)
(-0.002934714106 0.0001019850577 0)
(-0.001631054728 3.262730178e-05 0)
(-0.003044537804 9.637756112e-05 0)
(-0.0017155805 3.691144133e-05 0)
(-0.003128666898 9.113522281e-05 0)
(-0.001792156352 4.137138378e-05 0)
(-0.003188608396 8.657410947e-05 0)
(-0.001861768116 4.590700983e-05 0)
(-0.003226450526 8.277705459e-05 0)
(-0.00192527659 5.035610945e-05 0)
(-0.003244498291 7.960408196e-05 0)
(-0.001983193618 5.449073866e-05 0)
(-0.003244943997 7.669609688e-05 0)
(-0.002035456507 5.802399789e-05 0)
(-0.003229508165 7.348008037e-05 0)
(-0.002081287198 6.065410864e-05 0)
(-0.003199134676 6.925756843e-05 0)
(-0.002119318052 6.210356335e-05 0)
(-0.003153972943 6.339280743e-05 0)
(-0.002147587421 6.213725814e-05 0)
(-0.003093476833 5.534910899e-05 0)
(-0.002163773468 6.058752157e-05 0)
(-0.003016516071 4.474950391e-05 0)
(-0.002165422932 5.738096008e-05 0)
(-0.002921660429 3.144450723e-05 0)
(-0.002150252081 5.254959626e-05 0)
(-0.002807517881 1.557522677e-05 0)
(-0.002116406663 4.622077169e-05 0)
(-0.002673042671 -2.474175784e-06 0)
(-0.002062684595 3.861098888e-05 0)
(-0.002517839695 -2.212275495e-05 0)
(-0.001988692652 3.001489004e-05 0)
(-0.002342328206 -4.263269199e-05 0)
(-0.001894921793 2.078057546e-05 0)
(-0.002147820409 -6.320238714e-05 0)
(-0.00178271539 1.127463325e-05 0)
(-0.001936471083 -8.306139801e-05 0)
(-0.001654121997 1.845910775e-06 0)
(-0.001711071539 -0.0001015666149 0)
(-0.001511715291 -7.201488101e-06 0)
(-0.001474802717 -0.0001182449802 0)
(-0.001358388463 -1.562565794e-05 0)
(-0.001230961392 -0.0001327919342 0)
(-0.00119716324 -2.325793439e-05 0)
(-0.0009828007421 -0.000145062165 0)
(-0.001031038455 -2.999845081e-05 0)
(-0.0007333290985 -0.0001550367507 0)
(-0.00086287575 -3.580413637e-05 0)
(-0.0004853289964 -0.0001627752324 0)
(-0.00069531155 -4.067860474e-05 0)
(-0.0002412174677 -0.0001683914448 0)
(-0.0005307345473 -4.465396098e-05 0)
(-3.244750029e-06 -0.0001720091925 0)
(-0.0003712836097 -4.77805367e-05 0)
(0.0002266135438 -0.000173734497 0)
(-0.0002188480884 -5.012040247e-05 0)
(0.0004464995257 -0.0001736703422 0)
(-7.507430878e-05 -5.173979397e-05 0)
(0.0006546506518 -0.0001719071828 0)
(5.86259003e-05 -5.27066625e-05 0)
(0.0008493873408 -0.0001685345996 0)
(0.0001810570326 -5.308384816e-05 0)
(0.001029118576 -0.0001636453706 0)
(0.000291226944 -5.293274236e-05 0)
(0.001192351912 -0.0001573351023 0)
(0.0003883437041 -5.231382622e-05 0)
(0.001337710455 -0.0001497018885 0)
(0.0004717923509 -5.128090763e-05 0)
(0.001463953566 -0.0001408554458 0)
(0.0005410771246 -4.988559768e-05 0)
(0.001569955405 -0.0001308908168 0)
(0.0005958079051 -4.81709945e-05 0)
(0.001654670806 -0.0001198823212 0)
(0.0006356530977 -4.61762123e-05 0)
(0.001717097355 -0.0001078820519 0)
(0.000660286057 -4.394226568e-05 0)
(0.00175623995 -9.492317732e-05 0)
(0.0006693716566 -4.149904402e-05 0)
(0.001771047557 -8.101964081e-05 0)
(0.0006624880288 -3.886710781e-05 0)
(0.0017603126 -6.614804448e-05 0)
(0.0006391661411 -3.606132148e-05 0)
(0.001722708661 -5.0280585e-05 0)
(0.0005988754007 -3.309050622e-05 0)
(0.001656803248 -3.33850119e-05 0)
(0.000541041771 -2.995991655e-05 0)
(0.001561063281 -1.544601536e-05 0)
(0.0004650836129 -2.667004185e-05 0)
(0.001433926978 3.527403127e-06 0)
(0.0003704820223 -2.322016684e-05 0)
(0.001273894303 2.348669249e-05 0)
(0.0002568462775 -1.961208658e-05 0)
(0.001079658512 4.432497786e-05 0)
(0.0001239879668 -1.585292266e-05 0)
(0.0008502384205 6.587237473e-05 0)
(-2.799263267e-05 -1.195937891e-05 0)
(0.0005851255337 8.788587383e-05 0)
(-0.0001986272755 -7.94616686e-06 0)
(0.000284433893 0.0001100455753 0)
(-0.000387085531 -3.800795931e-06 0)
(-5.107376033e-05 0.0001320261398 0)
(-0.0005922087657 5.176434949e-07 0)
(-0.0004196403805 0.0001535186299 0)
(-0.0008126220977 5.003332317e-06 0)
(-0.000819040517 0.0001743019442 0)
(-0.001046542128 9.542439458e-06 0)
(-0.001246355423 0.0001939325613 0)
(-0.001291467116 1.397398871e-05 0)
(-0.001697566184 0.0002116194621 0)
(-0.001544178399 1.815045095e-05 0)
(-0.002167264385 0.0002265391145 0)
(-0.001800846628 2.192462219e-05 0)
(-0.002648811148 0.0002379425354 0)
(-0.002057097799 2.513902179e-05 0)
(-0.003134533645 0.000245120417 0)
(-0.002308093371 2.763454203e-05 0)
(-0.003615849018 0.000247428275 0)
(-0.002548621177 2.925592143e-05 0)
(-0.004083439518 0.0002443068621 0)
(-0.002773204242 2.985985631e-05 0)
(-0.004527461354 0.0002353067723 0)
(-0.002976228608 2.932539506e-05 0)
(-0.004937785929 0.0002201240218 0)
(-0.003152101319 2.756419492e-05 0)
(-0.005304282639 0.0001986354758 0)
(-0.003295441176 2.453151454e-05 0)
(-0.005617148668 0.000170934234 0)
(-0.003401300498 2.023366679e-05 0)
(-0.005867281929 0.0001373619474 0)
(-0.003465384217 1.473330966e-05 0)
(-0.006046665606 9.852875374e-05 0)
(-0.003484362882 8.159588239e-06 0)
(-0.006148838048 5.532011701e-05 0)
(-0.00345599747 7.04897965e-07 0)
(-0.006169221331 8.902978608e-06 0)
(-0.003379464891 -7.374570043e-06 0)
(-0.006105489533 -3.931182576e-05 0)
(-0.003255578054 -1.57053486e-05 0)
(-0.005957924522 -8.764850329e-05 0)
(-0.003087068956 -2.385943056e-05 0)
(-0.005730140014 -0.0001341399329 0)
(-0.002878283808 -3.157179594e-05 0)
(-0.005428219435 -0.0001771100149 0)
(-0.002634448384 -3.871745322e-05 0)
(-0.005060281673 -0.000215610629 0)
(-0.002361453102 -4.515274068e-05 0)
(-0.004636005976 -0.0002489070925 0)
(-0.002065750907 -5.07293954e-05 0)
(-0.004166116423 -0.0002763582536 0)
(-0.001754116467 -5.53381275e-05 0)
(-0.003662025512 -0.0002975644755 0)
(-0.001433398591 -5.891383853e-05 0)
(-0.003135419441 -0.000312370883 0)
(-0.001110282941 -6.143564889e-05 0)
(-0.002597848397 -0.0003208588126 0)
(-0.0007910669337 -6.292683431e-05 0)
(-0.002060336972 -0.0003233308725 0)
(-0.0004814624138 -6.34514084e-05 0)
(-0.001533032981 -0.000320285896 0)
(-0.0001864385936 -6.310619691e-05 0)
(-0.001024915854 -0.000312379055 0)
(8.988094295e-05 -6.20116454e-05 0)
(-0.0005435875177 -0.0003003713213 0)
(0.0003442760985 -6.030302887e-05 0)
(-9.515114083e-05 -0.0002850786717 0)
(0.0005744326612 -5.812133697e-05 0)
(0.000315824514 -0.0002673253274 0)
(0.000778898843 -5.56039153e-05 0)
(0.0006862573614 -0.000247899621 0)
(0.0009570051349 -5.287777008e-05 0)
(0.001014433706 -0.000227518493 0)
(0.001108767822 -5.00565703e-05 0)
(0.001299846331 -0.0002068071369 0)
(0.001234772028 -4.723833431e-05 0)
(0.001543004896 -0.0001862903782 0)
(0.001336056064 -4.450228252e-05 0)
(0.001745238025 -0.0001663892281 0)
(0.001413992251 -4.18998183e-05 0)
(0.001908497659 -0.0001474198174 0)
(0.001470158666 -3.945513897e-05 0)
(0.002035126833 -0.0001295767908 0)
(0.001506229397 -3.718640708e-05 0)
(0.002127766192 -0.000112955492 0)
(0.001523933129 -3.511335296e-05 0)
(0.002189147321 -9.762912138e-05 0)
(0.001525008701 -3.324808575e-05 0)
(0.002222033032 -8.363426216e-05 0)
(0.001511170178 -3.159331305e-05 0)
(0.002229155687 -7.096518158e-05 0)
(0.001484063228 -3.01458829e-05 0)
(0.002213159343 -5.958838397e-05 0)
(0.001445235328 -2.889627186e-05 0)
(0.002176550129 -4.944703418e-05 0)
(0.001396126051 -2.783107355e-05 0)
(0.002121669409 -4.046774093e-05 0)
(0.001338059959 -2.693601847e-05 0)
(0.002050683083 -3.2569687e-05 0)
(0.001272248807 -2.619667292e-05 0)
(0.001965588087 -2.567575296e-05 0)
(0.001199805 -2.560166579e-05 0)
(0.00186821635 -1.971914159e-05 0)
(0.001121761116 -2.51418755e-05 0)
(0.001760273694 -1.465099242e-05 0)
(0.001039094848 -2.481190279e-05 0)
(0.001643374334 -1.044210177e-05 0)
(0.0009527538718 -2.461239453e-05 0)
(0.001519078948 -7.08411922e-06 0)
(0.000863664175 -2.454377676e-05 0)
(0.001388919874 -4.576663374e-06 0)
(0.0007727227995 -2.460288695e-05 0)
(0.001254397924 -2.907147777e-06 0)
(0.000680768574 -2.478418039e-05 0)
(0.001116944239 -2.027454055e-06 0)
(0.0005885255895 -2.507575705e-05 0)
(0.0009778376438 -1.835985196e-06 0)
(0.0004965517681 -2.547158765e-05 0)
(0.0008380914412 -2.178334912e-06 0)
(0.0004052670964 -2.600955794e-05 0)
(0.0006983810896 -2.919189428e-06 0)
(0.0003151574775 -2.682108216e-05 0)
(0.0005591306606 -4.130186839e-06 0)
(0.0002272812717 -2.817280337e-05 0)
(0.0004209499302 -6.386230356e-06 0)
(0.0001441073346 -3.020244231e-05 0)
(0.0002857208016 -1.110080265e-05 0)
(7.008455421e-05 -2.695990119e-05 0)
(0.0001591218634 -2.025757324e-05 0)
(4.533522501e-05 -2.420124269e-05 0)
(-1.128939817e-06 -0.000169807915 0)
(-2.03636816e-05 -0.0001615758665 0)
(7.164547006e-05 -0.0002283317656 0)
(2.278059964e-05 -0.0002938450397 0)
(0.000157574761 -0.0002307320796 0)
(9.815154355e-05 -0.0003172367287 0)
(0.0002254930884 -0.0002096131106 0)
(0.0001624104641 -0.000290069998 0)
(0.0002628884702 -0.0001805835563 0)
(0.0001934076503 -0.0002433950271 0)
(0.000266153494 -0.0001497060913 0)
(0.0001850223358 -0.000191126704 0)
(0.0002346342343 -0.0001183604589 0)
(0.0001357779967 -0.0001376705479 0)
(0.0001679822013 -8.621970267e-05 0)
(4.53303362e-05 -8.327561183e-05 0)
(6.547760454e-05 -5.279189954e-05 0)
(-8.690439594e-05 -2.720285951e-05 0)
(-7.369690694e-05 -1.799659493e-05 0)
(-0.0002616789956 3.083624745e-05 0)
(-0.0002499207107 1.776646734e-05 0)
(-0.0004793622813 9.030149457e-05 0)
(-0.0004626567327 5.374013604e-05 0)
(-0.0007393280908 0.0001499405118 0)
(-0.0007101515131 8.896450946e-05 0)
(-0.00103949 0.0002080495432 0)
(-0.0009893159253 0.0001224081359 0)
(-0.001376090648 0.0002627317113 0)
(-0.001295723553 0.0001530536838 0)
(-0.001743677784 0.0003120746177 0)
(-0.001623685244 0.0001799557619 0)
(-0.002135163558 0.0003542739743 0)
(-0.00196641482 0.0002022927137 0)
(-0.002542023857 0.0003877374354 0)
(-0.002316254805 0.0002194175302 0)
(-0.002954575524 0.0004111806134 0)
(-0.002664976052 0.0002309116223 0)
(-0.003362337724 0.0004237195194 0)
(-0.003004129702 0.0002366321139 0)
(-0.003754471929 0.0004249609465 0)
(-0.003325452895 0.0002367426249 0)
(-0.004120288149 0.0004150702065 0)
(-0.003621300651 0.0002317226263 0)
(-0.004449794275 0.0003948097459 0)
(-0.003885062553 0.0002223470753 0)
(-0.004734245414 0.0003655174918 0)
(-0.004111525945 0.0002096329219 0)
(-0.004966636395 0.0003290355405 0)
(-0.004297145968 0.0001947438641 0)
(-0.005142104456 0.0002875791648 0)
(-0.004440164138 0.000178870068 0)
(-0.005258158754 0.0002435195596 0)
(-0.004540583401 0.0001630934353 0)
(-0.005314719921 0.0001991762825 0)
(-0.004599957773 0.0001482469043 0)
(-0.005313952738 0.0001565561549 0)
(-0.004621022069 0.000134794248 0)
(-0.005259884168 0.000117119254 0)
(-0.004607204818 0.0001227816265 0)
(-0.005157791794 8.161139525e-05 0)
(-0.004562164704 0.0001118494549 0)
(-0.005013613794 5.009621152e-05 0)
(-0.004489337486 0.0001012469311 0)
(-0.004833374282 2.19718141e-05 0)
(-0.004391499563 8.992455357e-05 0)
(-0.004622592571 -4.000173507e-06 0)
(-0.004270468465 7.677039286e-05 0)
(-0.004385784841 -2.941976121e-05 0)
(-0.004127270523 6.081320514e-05 0)
(-0.004126406833 -5.579668797e-05 0)
(-0.003962131662 4.131634054e-05 0)
(-0.003846951386 -8.436108769e-05 0)
(-0.00377479539 1.788236264e-05 0)
(-0.003549103583 -0.0001159638372 0)
(-0.00356483985 -9.438941385e-06 0)
(-0.003234077116 -0.00015090996 0)
(-0.003332069641 -4.013984779e-05 0)
(-0.002902998935 -0.0001888348765 0)
(-0.003076861137 -7.333308313e-05 0)
(-0.002557253029 -0.0002287972222 0)
(-0.002800396578 -0.0001078484261 0)
(-0.00219875467 -0.0002694636317 0)
(-0.00250476222 -0.0001423647126 0)
(-0.001830114452 -0.0003092627374 0)
(-0.002192900444 -0.0001755707585 0)
(-0.001454614224 -0.0003466185858 0)
(-0.001868408726 -0.0002063300573 0)
(-0.001076031224 -0.0003802016221 0)
(-0.001535208449 -0.0002337940744 0)
(-0.0006981993661 -0.00040912852 0)
(-0.0011972299 -0.0002574257925 0)
(-0.0003247100391 -0.0004329878798 0)
(-0.0008581705357 -0.0002769774818 0)
(4.155832709e-05 -0.0004517646 0)
(-0.0005213092146 -0.00029243355 0)
(0.0003984007398 -0.0004657328822 0)
(-0.0001894683743 -0.0003039346871 0)
(0.0007444010984 -0.0004753052825 0)
(0.0001349652191 -0.0003117069791 0)
(0.001078712622 -0.0004809217795 0)
(0.00044994107 -0.0003159986243 0)
(0.00140097908 -0.0004829353598 0)
(0.0007536178783 -0.0003170419629 0)
(0.001710902978 -0.0004815624104 0)
(0.001044275202 -0.0003150331447 0)
(0.002008161359 -0.0004768861016 0)
(0.001320179395 -0.0003101305495 0)
(0.002292106298 -0.0004688538938 0)
(0.001579533431 -0.0003024725214 0)
(0.002561665493 -0.0004573459996 0)
(0.001820484876 -0.0002921967508 0)
(0.00281532295 -0.0004422395127 0)
(0.002041154706 -0.0002794539411 0)
(0.003051170564 -0.000423461606 0)
(0.002239667959 -0.0002643995148 0)
(0.003267002531 -0.0004010070195 0)
(0.002414198635 -0.0002471973115 0)
(0.00346041722 -0.0003749267644 0)
(0.00256301621 -0.0002280116332 0)
(0.003628917654 -0.0003453206087 0)
(0.002684445427 -0.0002069737825 0)
(0.003769975873 -0.0003123062863 0)
(0.002776834733 -0.0001841774381 0)
(0.003881031516 -0.0002759644478 0)
(0.00283852767 -0.0001596730359 0)
(0.00395946802 -0.0002363224595 0)
(0.002867781211 -0.0001334625006 0)
(0.004002601634 -0.0001933355134 0)
(0.002862712855 -0.0001054995904 0)
(0.004007570752 -0.0001468790379 0)
(0.002821193125 -7.57102469e-05 0)
(0.003971250065 -9.677389163e-05 0)
(0.002740942853 -4.401851457e-05 0)
(0.003890276979 -4.283675074e-05 0)
(0.002619525495 -1.036516669e-05 0)
(0.003761103129 1.509131747e-05 0)
(0.002454425666 2.526220707e-05 0)
(0.003580026109 7.709408092e-05 0)
(0.002243156362 6.280139651e-05 0)
(0.003343325921 0.0001431198714 0)
(0.001983428967 0.0001020875168 0)
(0.003047443374 0.0002129333155 0)
(0.0016733494 0.0001428317402 0)
(0.002689215242 0.0002860684963 0)
(0.001311612431 0.0001846094466 0)
(0.002266129556 0.0003618014355 0)
(0.0008977004808 0.0002268535412 0)
(0.001776587938 0.0004391447015 0)
(0.0004320710227 0.0002688673842 0)
(0.001220161849 0.0005168463219 0)
(-8.357137887e-05 0.0003099207906 0)
(0.0005977610247 0.0005933658645 0)
(-0.0006463881011 0.0003494585237 0)
(-8.819571294e-05 0.0006672677921 0)
(-0.001252682387 0.0003868317567 0)
(-0.0008337238695 0.0007374513654 0)
(-0.001897348987 0.0004208308503 0)
(-0.001633206748 0.0008020088194 0)
(-0.002573390991 0.0004499194813 0)
(-0.00247902397 0.0008581657953 0)
(-0.00327197377 0.0004726175738 0)
(-0.003360859532 0.000903132421 0)
(-0.003982636322 0.0004875609611 0)
(-0.004266190797 0.0009343780025 0)
(-0.004693495536 0.0004935060742 0)
(-0.005180614936 0.0009495902201 0)
(-0.005391493611 0.0004893710759 0)
(-0.006088067658 0.0009467592988 0)
(-0.006062683519 0.0004742757848 0)
(-0.006971181439 0.0009242512046 0)
(-0.006692570648 0.0004475942663 0)
(-0.007811711905 0.000880887292 0)
(-0.00726650934 0.0004090188707 0)
(-0.008591030828 0.0008160490534 0)
(-0.007770156103 0.0003586242632 0)
(-0.009290693675 0.0007297832851 0)
(-0.008189978898 0.0002969259119 0)
(-0.009893070074 0.0006228953932 0)
(-0.008513813198 0.0002249251318 0)
(-0.01038202465 0.0004970221339 0)
(-0.008731431981 0.0001441349418 0)
(-0.01074360077 0.0003546723563 0)
(-0.008835157545 5.657784249e-05 0)
(-0.01096680076 0.0001992376248 0)
(-0.008820279155 -3.523910155e-05 0)
(-0.01104410932 3.492132435e-05 0)
(-0.00868562157 -0.0001283178889 0)
(-0.01097206028 -0.0001332937515 0)
(-0.008434086376 -0.000219210718 0)
(-0.01075183501 -0.0002996323749 0)
(-0.008072636684 -0.0003046268228 0)
(-0.01039046125 -0.0004580067287 0)
(-0.007611370504 -0.0003821433357 0)
(-0.009898105398 -0.0006035460782 0)
(-0.007062788961 -0.0004500456476 0)
(-0.009289086336 -0.00073283518 0)
(-0.006441371146 -0.0005070007645 0)
(-0.008580279649 -0.0008430895624 0)
(-0.005762813836 -0.0005520906396 0)
(-0.007790373166 -0.0009323880622 0)
(-0.00504345097 -0.0005848521537 0)
(-0.006939238578 -0.0009996230503 0)
(-0.004299681465 -0.0006052772449 0)
(-0.006047191253 -0.00104450486 0)
(-0.003547407435 -0.0006137919601 0)
(-0.005134275128 -0.001067539559 0)
(-0.00280151864 -0.0006112147048 0)
(-0.004219584079 -0.001069970322 0)
(-0.002075443986 -0.0005986923153 0)
(-0.003320652255 -0.001053676077 0)
(-0.001380803166 -0.0005776159481 0)
(-0.002452950577 -0.0010210353 0)
(-0.0007271863881 -0.0005495244153 0)
(-0.001629526189 -0.0009747595014 0)
(-0.0001220500046 -0.0005160088199 0)
(-0.0008607995462 -0.0009177157065 0)
(0.0004292692804 -0.0004786264003 0)
(-0.0001545158589 -0.0008527612858 0)
(0.0009234317687 -0.0004388277131 0)
(0.0004841597816 -0.0007826025557 0)
(0.001358888788 -0.0003979028835 0)
(0.001052423677 -0.0007096814983 0)
(0.001735633428 -0.0003569517847 0)
(0.001549532501 -0.0006361009365 0)
(0.002054923272 -0.0003168762126 0)
(0.001976454194 -0.0005635944743 0)
(0.002319000852 -0.0002783735527 0)
(0.002335528 -0.000493527087 0)
(0.002530823749 -0.0002419290465 0)
(0.002630056948 -0.0004269073987 0)
(0.002693809748 -0.000207832817 0)
(0.00286402534 -0.0003643800825 0)
(0.002811627226 -0.000176250546 0)
(0.003041912447 -0.0003062829159 0)
(0.002888055432 -0.0001472748271 0)
(0.0031682852 -0.0002528043249 0)
(0.002926856998 -0.0001209226709 0)
(0.003247721352 -0.0002039958468 0)
(0.002931697948 -9.714530468e-05 0)
(0.003284699501 -0.0001597803906 0)
(0.002906087178 -7.584524288e-05 0)
(0.003283508303 -0.0001199911291 0)
(0.002853324067 -5.689232535e-05 0)
(0.003248185907 -8.440152755e-05 0)
(0.00277647738 -4.013615585e-05 0)
(0.003182486201 -5.274895637e-05 0)
(0.002678386227 -2.542183501e-05 0)
(0.003089874683 -2.475749306e-05 0)
(0.002561666027 -1.260791437e-05 0)
(0.002973532753 -1.624511694e-07 0)
(0.002428741993 -1.580291345e-06 0)
(0.002836396751 2.12587552e-05 0)
(0.002281899004 7.73608624e-06 0)
(0.002681210525 3.966468524e-05 0)
(0.00212333016 1.537817516e-05 0)
(0.002510581718 5.514522071e-05 0)
(0.001955181524 2.135937227e-05 0)
(0.002327040593 6.773572199e-05 0)
(0.001779561099 2.569547895e-05 0)
(0.002133075547 7.745175236e-05 0)
(0.001598501786 2.844993939e-05 0)
(0.001931116183 8.435812618e-05 0)
(0.001413875278 2.977948344e-05 0)
(0.001723459425 8.865433422e-05 0)
(0.00122725013 2.994411403e-05 0)
(0.001512125118 9.073733899e-05 0)
(0.001039750064 2.924566807e-05 0)
(0.001298664939 9.11917672e-05 0)
(0.0008520470541 2.780457253e-05 0)
(0.001084029354 9.059912846e-05 0)
(0.0006646749305 2.512253676e-05 0)
(0.0008686764825 8.901596418e-05 0)
(0.0004789812745 1.952837807e-05 0)
(0.0006531732966 8.504975771e-05 0)
(0.0002989084666 8.240780889e-06 0)
(0.0004396519573 7.469324554e-05 0)
(0.0001332434544 -6.076392547e-06 0)
(0.0002373353247 5.111744837e-05 0)
(6.098400931e-05 1.475626365e-05 0)
(-5.750230595e-06 -0.0002865207063 0)
(-2.132142761e-05 -0.0002397354393 0)
(4.810620015e-05 -0.0003833661131 0)
(4.97210795e-06 -0.000431374025 0)
(0.0001036767115 -0.0003773291558 0)
(4.818966562e-05 -0.0004557522092 0)
(0.0001306241187 -0.0003246931228 0)
(6.935826404e-05 -0.0003988286922 0)
(0.0001158210682 -0.000254777922 0)
(4.807082641e-05 -0.0003089228085 0)
(5.48951746e-05 -0.0001798815777 0)
(-2.158793211e-05 -0.0002087202476 0)
(-5.329941084e-05 -0.0001033009722 0)
(-0.0001411159528 -0.0001058494949 0)
(-0.000209320602 -2.487963284e-05 0)
(-0.0003108299633 -1.155926526e-06 0)
(-0.000413795085 5.591192182e-05 0)
(-0.0005310895157 0.0001061512745 0)
(-0.0006670448642 0.000138735309 0)
(-0.0008020666879 0.0002160298115 0)
(-0.000968432259 0.0002221976984 0)
(-0.001123078796 0.0003269505873 0)
(-0.001315779158 0.0003041027036 0)
(-0.001491871519 0.0004360895794 0)
(-0.001705005442 0.0003818075089 0)
(-0.001904119032 0.0005398108147 0)
(-0.002129989923 0.0004525282536 0)
(-0.002353200298 0.0006341444642 0)
(-0.002582614141 0.0005135619171 0)
(-0.002830200996 0.0007151538159 0)
(-0.003052955919 0.0005624559474 0)
(-0.003324098176 0.0007792043247 0)
(-0.003529593351 0.0005971537628 0)
(-0.003822092371 0.0008231845793 0)
(-0.004000016126 0.0006161315429 0)
(-0.004310063924 0.0008447054227 0)
(-0.004451133155 0.0006185292926 0)
(-0.004773143676 0.0008422897747 0)
(-0.00486986193 0.0006042625377 0)
(-0.005196384724 0.0008155434372 0)
(-0.00524377659 0.0005740965179 0)
(-0.005565504032 0.0007652783231 0)
(-0.005561782984 0.0005296542655 0)
(-0.005867673762 0.0006935731753 0)
(-0.005814740699 0.0004733431993 0)
(-0.006092281723 0.0006037028196 0)
(-0.005995989159 0.0004082072106 0)
(-0.006231577418 0.0004999602406 0)
(-0.006101725198 0.000337673444 0)
(-0.006281196481 0.0003873807078 0)
(-0.00613113197 0.0002652509208 0)
(-0.006240372624 0.0002712734016 0)
(-0.006086314265 0.0001941931043 0)
(-0.006111965669 0.0001568206331 0)
(-0.005971913809 0.0001271354412 0)
(-0.005902073341 4.850340084e-05 0)
(-0.005794525624 6.582175976e-05 0)
(-0.005619470987 -5.033332768e-05 0)
(-0.00556196296 1.100708998e-05 0)
(-0.005274464056 -0.0001377870485 0)
(-0.005282549111 -3.750780521e-05 0)
(-0.004878327807 -0.0002133318186 0)
(-0.004964427144 -8.083370384e-05 0)
(-0.004442259333 -0.0002777842827 0)
(-0.004614925237 -0.0001207797976 0)
(-0.003976505714 -0.0003332104512 0)
(-0.004240140926 -0.0001593517486 0)
(-0.003489800922 -0.0003823856517 0)
(-0.003845054068 -0.0001983299912 0)
(-0.002989297868 -0.0004279581115 0)
(-0.003433549236 -0.0002390857204 0)
(-0.002480441338 -0.0004721418237 0)
(-0.003008763514 -0.0002824016279 0)
(-0.00196754888 -0.0005164680685 0)
(-0.002573405467 -0.0003282771656 0)
(-0.001454138042 -0.0005615861605 0)
(-0.002130119725 -0.000375902391 0)
(-0.0009435264419 -0.0006071409827 0)
(-0.001681795353 -0.0004238721449 0)
(-0.0004390345921 -0.0006519112669 0)
(-0.001231733353 -0.0004704377106 0)
(5.599304908e-05 -0.0006941571122 0)
(-0.0007836938812 -0.0005137483737 0)
(0.0005376946164 -0.0007319045672 0)
(-0.0003417448017 -0.0005521717208 0)
(0.001001907065 -0.0007633549794 0)
(9.01062e-05 -0.0005845849084 0)
(0.001444500481 -0.000787362874 0)
(0.0005083696846 -0.0006105018334 0)
(0.001862045284 -0.0008036905381 0)
(0.00091048004 -0.0006300127964 0)
(0.002252290245 -0.0008129674838 0)
(0.001294982228 -0.0006436050709 0)
(0.002614673059 -0.0008163985212 0)
(0.001661491639 -0.0006519645915 0)
(0.002950194299 -0.0008153865676 0)
(0.002010530194 -0.000655800167 0)
(0.003261280602 -0.0008112683003 0)
(0.002343226039 -0.0006556920666 0)
(0.003551357666 -0.0008050683263 0)
(0.002660951587 -0.0006519862662 0)
(0.003824341184 -0.0007973135483 0)
(0.002964922057 -0.0006447623413 0)
(0.004084006237 -0.0007879649617 0)
(0.003255860968 -0.0006338665683 0)
(0.004333448999 -0.0007764761376 0)
(0.003533783804 -0.0006189898567 0)
(0.004574659277 -0.0007619396251 0)
(0.003797899953 -0.0005997702346 0)
(0.004808301109 -0.0007432808129 0)
(0.0040466412 -0.0005758861519 0)
(0.005033677721 -0.0007194436909 0)
(0.004277787267 -0.0005471157859 0)
(0.005248856351 -0.0006895404178 0)
(0.004488613856 -0.0005133576461 0)
(0.005450898109 -0.0006529288681 0)
(0.00467604322 -0.0004746051151 0)
(0.005636115932 -0.0006092124782 0)
(0.004836798559 -0.0004309115289 0)
(0.00580031648 -0.0005581797231 0)
(0.004967476294 -0.0003823425792 0)
(0.005938997083 -0.0004997411644 0)
(0.005064557978 -0.0003289143161 0)
(0.006047455312 -0.0004338331543 0)
(0.005124400886 -0.0002705592913 0)
(0.006120822195 -0.0003603364711 0)
(0.005143176481 -0.0002071048997 0)
(0.006154085459 -0.0002790112238 0)
(0.005116835327 -0.0001382949912 0)
(0.0061419602 -0.0001894884611 0)
(0.00504098752 -6.383909815e-05 0)
(0.006078911172 -9.1346661e-05 0)
(0.004911020819 1.653107772e-05 0)
(0.005959067608 1.586375549e-05 0)
(0.004722113058 0.0001029981608 0)
(0.005776350909 0.0001324794916 0)
(0.004469364576 0.0001955834823 0)
(0.005524531345 0.0002586668649 0)
(0.004147980895 0.0002940623891 0)
(0.005197412529 0.0003942746646 0)
(0.003753523948 0.000397896171 0)
(0.004789090536 0.0005387274706 0)
(0.003282216858 0.0005061806058 0)
(0.004294273965 0.0006909398827 0)
(0.002731255542 0.0006176228286 0)
(0.003708639304 0.0008492608344 0)
(0.002099109868 0.0007305447372 0)
(0.00302918645 0.001011467228 0)
(0.001385790534 0.0008428960808 0)
(0.002254573119 0.001174800003 0)
(0.0005930011894 0.0009524248633 0)
(0.001385456455 0.001336035357 0)
(-0.000275530796 0.001057054764 0)
(0.0004244075939 0.001491696878 0)
(-0.001214240665 0.001154448899 0)
(-0.0006242677135 0.001638788877 0)
(-0.00221500047 0.001241184963 0)
(-0.00175186718 0.001772747901 0)
(-0.003266661138 0.001313213891 0)
(-0.00294757245 0.001887644093 0)
(-0.004355273758 0.001366689205 0)
(-0.004196471178 0.001977721497 0)
(-0.005464413255 0.00139813263 0)
(-0.005480579246 0.002037784548 0)
(-0.006575482344 0.001404465798 0)
(-0.006779310361 0.002063145331 0)
(-0.007668112791 0.001383126677 0)
(-0.00806971933 0.002049815725 0)
(-0.008720644876 0.001332184103 0)
(-0.009327050617 0.00199467808 0)
(-0.009710700327 0.001250469239 0)
(-0.01052539388 0.001895669173 0)
(-0.0106158532 0.001137719783 0)
(-0.01163844193 0.001751979215 0)
(-0.01141437244 0.000994715364 0)
(-0.01264035014 0.00156424242 0)
(-0.01208601814 0.0008233853642 0)
(-0.01350666066 0.001334690711 0)
(-0.01261287265 0.0006268768955 0)
(-0.01421525678 0.001067247789 0)
(-0.01298016146 0.0004095792485 0)
(-0.01474728189 0.000767560585 0)
(-0.01317708436 0.0001770661207 0)
(-0.01508816154 0.0004429703062 0)
(-0.01319735572 -6.398635131e-05 0)
(-0.01522821534 0.0001023196497 0)
(-0.01303993733 -0.0003057971255 0)
(-0.01516323745 -0.0002441201453 0)
(-0.01270975658 -0.0005399582919 0)
(-0.01489572424 -0.0005845723195 0)
(-0.01221717191 -0.0007588050057 0)
(-0.01443534526 -0.0009074623113 0)
(-0.01157695561 -0.0009564053522 0)
(-0.01379591474 -0.001203442038 0)
(-0.01080754709 -0.001128280278 0)
(-0.01299702141 -0.001465373706 0)
(-0.009930024925 -0.001271093758 0)
(-0.01206121888 -0.00168778161 0)
(-0.008967279852 -0.001382721362 0)
(-0.01101373743 -0.001866880465 0)
(-0.007943172436 -0.001462220239 0)
(-0.0098814906 -0.002000550644 0)
(-0.006881673178 -0.001509807459 0)
(-0.00869209737 -0.002088340526 0)
(-0.00580603042 -0.001526800477 0)
(-0.007472895362 -0.002131425968 0)
(-0.004737997199 -0.001515500477 0)
(-0.006249985368 -0.002132489278 0)
(-0.00369716613 -0.001479018549 0)
(-0.005047364153 -0.002095510196 0)
(-0.002700444691 -0.001421055703 0)
(-0.003886200503 -0.002025477153 0)
(-0.001761719984 -0.001345656364 0)
(-0.002784305591 -0.001928045596 0)
(-0.0008917084879 -0.00125696141 0)
(-0.001755827467 -0.001809173753 0)
(-9.798641518e-05 -0.001158985759 0)
(-0.0008111727499 -0.001674774087 0)
(0.0006148212248 -0.001055435299 0)
(4.286221813e-05 -0.001530415557 0)
(0.001244720373 -0.0009495738887 0)
(0.0008027806747 -0.001381091384 0)
(0.001791951415 -0.0008441474944 0)
(0.001467943649 -0.001231068941 0)
(0.002258556632 -0.0007413583233 0)
(0.002040052324 -0.001083817479 0)
(0.002647929326 -0.0006428888852 0)
(0.002522675307 -0.0009419980303 0)
(0.002964477636 -0.0005499194605 0)
(0.002920548601 -0.0008075903864 0)
(0.003213241802 -0.0004631490702 0)
(0.003239392625 -0.0006818556782 0)
(0.003399540715 -0.0003829358134 0)
(0.003485501607 -0.0005653982638 0)
(0.003528774445 -0.0003094240669 0)
(0.003665154432 -0.0004584797716 0)
(0.003606250024 -0.000242570529 0)
(0.003784559029 -0.0003610783205 0)
(0.003637065802 -0.0001821809339 0)
(0.0038497 -0.0002729365082 0)
(0.003626043598 -0.0001279593427 0)
(0.003866217222 -0.0001936355447 0)
(0.003577678488 -7.954482445e-05 0)
(0.003839351838 -0.0001226579602 0)
(0.003496119988 -3.654687065e-05 0)
(0.003773920359 -5.94343574e-05 0)
(0.003385178289 1.421389369e-06 0)
(0.00367432273 -3.390268224e-06 0)
(0.003248354166 3.470496327e-05 0)