/*--------------------------------*- C++ -*----------------------------------*\
| =========                 |                                                 |
| \\      /  F ield         | OpenFOAM: The Open Source CFD Toolbox           |
|  \\    /   O peration     | Version:  2412                                  |
|   \\  /    A nd           | Website:  www.openfoam.com                      |
|    \\/     M anipulation  |                                                 |
\*---------------------------------------------------------------------------*/
FoamFile
{
    version     2.0;
    format      ascii;
    arch        "LSB;label=32;scalar=64";
    class       volScalarField;
    location    "0.05";
    object      T;
}
// * * * * * * * * * * * * * * * * * * * * * * * * * * * * * * * * * * * * * //

dimensions      [0 0 0 1 0 0 0];

internalField   nonuniform List<scalar> 
12008
(
306.4807202
306.4896806
306.5075578
306.5350013
306.5727094
306.6215743
306.6826473
306.7570939
306.8461423
306.9510203
307.0728845
307.2127412
307.3713642
307.549211
307.7463456
307.9623694
308.1963686
308.4468788
308.711873
308.9887729
309.2744843
309.5654549
309.8577522
310.1471566
310.4292661
310.6996067
310.953744
311.1873919
311.3965153
311.5774227
311.7268479
311.8420184
311.9207058
311.961033
311.9625626
311.9247438
311.847914
311.7331282
311.5821601
311.3974812
311.1822241
310.9401246
310.6754397
310.3928418
310.0972895
309.7938804
309.4876943
309.1836362
308.8862927
308.5998066
308.3277792
308.0732048
307.8384389
307.6251964
307.4345792
307.2671247
307.1228718
307.0014365
306.9020931
306.823853
306.7655393
306.7258515
306.7034195
306.6968438
306.7047241
306.725735
306.7585731
306.8019534
306.8546583
306.9155457
306.98356
307.0577462
307.1372634
307.2213952
307.3095504
307.4012517
307.4961087
307.5937735
307.6938834
307.7959917
307.8994977
308.0035828
308.107162
308.2088606
308.3070196
308.3997338
308.484919
308.5604036
308.6240365
308.6738
308.7079045
308.7247086
308.7237495
308.7043193
308.6664089
308.6105244
308.5376836
308.4493577
308.3473957
308.2339541
308.1114057
307.9822468
307.8490045
307.7141504
307.580022
307.448755
307.322229
307.2020271
307.0894116
306.985315
306.8903449
306.8048028
306.7287135
306.6618618
306.6038354
306.5540692
306.5118896
306.4765564
306.4472993
306.42335
306.4039676
306.3884574
306.3761842
306.36658
306.3591474
306.3534585
306.349152
306.3459278
306.3435406
306.3417927
306.3405273
306.3396216
306.3389806
306.338532
306.3382209
306.3380062
306.3378571
306.3377501
306.3376678
306.3376056
306.4875121
306.4968179
306.5154275
306.5439848
306.5832117
306.634029
306.6975192
306.7748818
306.8673792
306.9762733
307.1027523
307.2478498
307.4123591
307.5967487
307.801082
308.0249473
308.2674038
308.526946
308.8014916
309.0883932
309.384474
309.6860868
309.9891928
310.2894561
310.5823504
310.8632719
311.1276548
311.371084
311.5894021
311.7788074
311.9359405
312.0579578
312.1425947
312.1877925
312.1932664
312.1583832
312.0834139
311.9693668
311.8179608
311.6316053
311.4133683
311.1669284
310.8965074
310.606776
310.3027353
309.9895739
309.6725121
309.35664
309.0467623
308.7472625
308.4619931
308.1941992
307.9464755
307.7207575
307.5183414
307.339929
307.1856903
307.0553381
306.9482087
306.8633427
306.7995623
306.7555397
306.7298561
306.7210495
306.7276101
306.748154
306.7813427
306.8257901
306.8802288
306.9434875
307.0145063
307.0923529
307.1762347
307.2655055
307.3596582
307.4583033
307.5611271
307.6678341
307.7780731
307.8913572
308.0069841
308.1239682
308.2409952
308.3564066
308.4682197
308.574183
308.6718627
308.7587543
308.8324074
308.8905545
308.9312348
308.9524294
308.9539405
308.9349396
308.8954136
308.8359442
308.75767
308.6622171
308.5516323
308.4282844
308.2947702
308.1538167
308.0081836
307.8605725
307.7135431
307.5694414
307.43034
307.2979945
307.1738151
307.0588548
306.9538136
306.859056
306.7746416
306.7003642
306.6357967
306.5803399
306.5332704
306.493786
306.4610475
306.4342134
306.4124689
306.3950474
306.3812457
306.3704335
306.3620572
306.3556394
306.3507766
306.3471326
306.3444321
306.3424531
306.3410193
306.3399922
306.3392651
306.3387561
306.3384039
306.3381624
306.3379975
306.3378823
306.3377882
306.3376614
306.5007823
306.5108061
306.5308547
306.5616035
306.6038172
306.658468
306.7266958
306.8097611
306.9089888
307.0257021
307.1611458
307.3164023
307.4923025
307.6893376
307.9075761
308.1465922
308.4054094
308.6824643
308.9755931
309.282042
309.598502
309.9211654
310.2458037
310.5678617
310.8825653
311.1850386
311.470426
311.7340151
311.9713565
312.1783755
312.3514717
312.4876049
312.5843653
312.6396522
312.6529577
312.6237949
312.5523273
312.4394854
312.2869285
312.0969855
311.8726277
311.6174399
311.3355788
311.0317069
310.7108964
310.3785006
310.0399994
309.7008301
309.3662161
309.0410083
308.7295516
308.4355849
308.1621779
307.9117049
307.6858522
307.4856529
307.3115436
307.1634354
307.0407946
306.9427257
306.8680534
306.8153991
306.7832492
306.7700138
306.7740252
306.7936732
306.8276231
306.8742783
306.9322739
307.0003856
307.0775526
307.162896
307.2557296
307.3555555
307.4620414
307.574974
307.6941906
307.8194894
307.9505278
308.0867178
308.2271305
308.3704237
308.5148039
308.6580305
308.7974656
308.9301651
309.053004
309.1628239
309.25659
309.3315443
309.3853474
309.4155547
309.4219205
309.4038238
309.3610973
309.2944667
309.2053089
309.0955642
308.9676457
308.8243348
308.6686719
308.5038463
308.3330887
308.1595688
307.9863019
307.8160663
307.6513335
307.4942157
307.3464297
307.2092791
307.0836555
306.9700552
306.8686116
306.7791381
306.7011796
306.6340681
306.576979
306.5289853
306.4891069
306.4563535
306.4297595
306.4084119
306.3914687
306.3781721
306.3678536
306.359935
306.3539257
306.3494158
306.3460688
306.3436127
306.3418307
306.3405527
306.339647
306.3390129
306.3385748
306.3382768
306.3380782
306.33795
306.3378636
306.3377287
306.5206524
306.5317285
306.5538896
306.5878546
306.6344461
306.6947055
306.7698501
306.8612223
306.9702313
307.0982834
307.2467027
307.4166424
307.6089931
307.824291
308.0626322
308.3235987
308.6061991
308.9088298
309.2292567
309.5646197
309.9114599
310.2657678
310.6230528
310.9784314
311.326733
311.6626215
311.9807295
312.2758006
312.5428362
312.7772379
312.9749392
313.1325189
313.2472916
313.3171857
313.3413453
313.3195245
313.2519744
313.1395611
312.9840394
312.7877505
312.5536111
312.2851078
311.9862963
311.6617834
311.3166756
310.9564855
310.5869936
310.2140765
309.8435172
309.4808154
309.1310183
308.7985835
308.487284
308.2001541
307.9394751
307.7067939
307.5029678
307.3282291
307.1822631
307.064293
306.9731683
306.9074512
306.8654989
306.8455384
306.8457233
306.8640193
306.8991568
306.9492354
307.0127536
307.0884232
307.1752014
307.2723124
307.3792511
307.4957604
307.6217792
307.7573571
307.9025398
308.0572329
308.2210578
308.393214
308.5723646
308.7565635
308.943237
309.1292237
309.3108739
309.4841968
309.6450423
309.7893007
309.913101
310.0129936
310.0861101
310.1295211
310.1426926
310.1255828
310.0776994
309.9999894
309.8941812
309.7626699
309.6084053
309.434769
309.2454484
309.0443118
308.8352861
308.6222392
308.4088716
308.1986171
307.9945578
307.7993563
307.6152068
307.4438079
307.286357
307.1435653
307.0156918
306.902592
306.803778
306.718485
306.6457401
306.5844295
306.5333603
306.4913152
306.4570982
306.4295703
306.4076753
306.3904574
306.3770695
306.3667762
306.3589505
306.3530673
306.3486939
306.3454792
306.3431432
306.3414652
306.3402744
306.33944
306.3388637
306.338473
306.3382153
306.3380533
306.3379523
306.337809
306.5470374
306.5594759
306.5843735
306.6225018
306.6747529
306.7422511
306.8263058
306.928358
307.0499198
307.1925022
307.357533
307.546266
307.7596869
307.9984192
308.2626362
308.5519836
308.8655167
309.201653
309.5581439
309.9320639
310.3198188
310.7171741
311.1193039
311.5208629
311.9160853
312.2989101
312.6631343
313.0025894
313.311337
313.5838698
313.8153073
314.0015729
314.1395322
314.2270619
314.263184
314.2479698
314.1822805
314.0668419
313.9041038
313.6967024
313.4476907
313.1605352
312.8391614
312.4880106
312.1120747
311.7168786
311.3083958
310.8928988
310.4767586
310.0662209
309.6671878
309.2850285
308.9244352
308.589327
308.2828013
308.0071259
307.7637636
307.5534244
307.3761355
307.2313265
307.1179231
307.0344463
306.9791122
306.9499327
306.9448109
306.9612845
306.9979896
307.0527985
307.1240117
307.2102896
307.3106534
307.4245058
307.5516205
307.6920887
307.8462196
308.0143966
308.196897
308.3936927
308.6042525
308.8273666
309.0610174
309.30232
309.5475432
309.79221
310.0312706
310.2593282
310.4708957
310.6606579
310.8237167
310.955802
311.0534428
311.1131495
311.1340941
311.1171461
311.0613357
310.9679347
310.8391465
310.6779588
310.4880062
310.2734288
310.0387303
309.788638
309.5279663
309.2614829
308.9937812
308.7291613
308.4715231
308.2242776
307.9902789
307.7717812
307.5704226
307.3872339
307.2226735
307.0766812
306.9487487
306.8380003
306.7432777
306.6632247
306.5963666
306.5411813
306.4961596
306.4598528
306.4309095
306.4080989
306.3903253
306.3766327
306.3662027
306.3583472
306.3524972
306.3481898
306.3450543
306.3427985
306.3411949
306.3400697
306.3392918
306.3387642
306.3384167
306.3381991
306.3380673
306.3379098
306.5798138
306.5938965
306.6220971
306.665247
306.724316
306.8005216
306.8952777
307.0101391
307.1467403
307.3067229
307.4916532
307.7029313
307.941697
308.2087348
308.504385
308.8284617
309.180181
309.5581001
309.9600666
310.3831787
310.823758
311.2773382
311.738677
312.2017966
312.6600663
313.1063296
313.5330848
313.9327138
314.2977535
314.6211951
314.8967939
315.1193672
315.2850456
315.3914415
315.4377195
315.4247287
315.3545193
315.2278419
315.048951
314.8214329
314.5489847
314.2353478
313.8843813
313.5002191
313.0874507
312.6512592
312.1974695
311.7324808
311.2630894
310.7962368
310.3387311
309.8969847
309.4767969
309.0831938
308.7203265
308.39142
308.0987664
307.8437522
307.6269145
307.4480198
307.3061617
307.1998723
307.1272444
307.0860628
307.0739343
307.0880473
307.1266456
307.1876337
307.2690222
307.3694693
307.4881411
307.6247278
307.7794045
307.9527275
308.1454645
308.3583664
308.5919005
308.8459727
309.1196713
309.4110555
309.7170286
310.0333187
310.3545697
310.6745361
310.986359
311.2828938
311.5570561
311.8021511
312.012162
312.1819795
312.3075693
312.3847747
312.4128995
312.3938615
312.3261469
312.2114976
312.0527291
311.853546
311.6183823
311.352246
311.0605678
310.7490535
310.423537
310.0898338
309.753595
309.4201656
309.0944527
308.7808083
308.4829359
308.2038229
307.9457064
307.7100708
307.4976774
307.308622
307.1424155
306.9980799
306.8742526
306.7692927
306.6813827
306.6086217
306.5491042
306.5009862
306.462534
306.4321591
306.4084392
306.390127
306.3761501
306.3656029
306.3577338
306.3519294
306.3476968
306.3446463
306.3424741
306.3409471
306.3398896
306.3391709
306.3386964
306.3383981
306.3382192
306.3380401
306.6188064
306.6347846
306.6667929
306.7157269
306.7826411
306.8688553
306.9759001
307.1054627
307.2593269
307.4393032
307.6471502
307.8844878
308.1527055
308.4528704
308.785636
309.1511538
309.5489865
309.9780212
310.4363809
310.9213355
311.4292149
311.9553336
312.4939407
313.03821
313.5802928
314.1114436
314.6222321
315.1028415
315.5434457
315.9346492
316.2679725
316.5363508
316.7345921
316.8597221
316.911143
316.8912921
316.8034965
316.649806
316.4377585
316.1731955
315.8615768
315.5077098
315.1157672
314.6895382
314.2328229
313.7498532
313.2456226
312.7260329
312.1978253
311.6683328
311.1451371
310.6357066
310.1470712
309.685563
309.2566308
308.8647212
308.513219
308.2044358
307.9396382
307.7191126
307.5422604
307.407722
307.3135236
307.2572443
307.2361969
307.2472792
307.2881461
307.3569808
307.4514752
307.5703734
307.7131097
307.8798047
308.0711764
308.2883581
308.5326263
308.8050603
309.1061675
309.4355199
309.7914384
310.1707649
310.5687725
310.9792277
311.3945973
311.8063764
312.2055015
312.5828003
312.929432
313.237279
313.499262
313.709566
313.8637831
313.9569106
313.9895306
313.964241
313.8791349
313.7366183
313.5402617
313.2945829
313.004876
312.6770547
312.3175052
311.9329426
311.5302658
311.1164049
310.698163
310.2820538
309.874142
309.4798935
309.104047
308.7505137
308.4223132
308.1215501
307.8494311
307.6063194
307.3918224
307.2049027
307.044003
306.9071776
306.7922218
306.6967914
306.6185075
306.5550444
306.5041972
306.4639312
306.4324129
306.4080255
306.3893718
306.3752666
306.3647225
306.3569303
306.3512379
306.3471278
306.3441957
306.3421306
306.3406974
306.3397209
306.3390737
306.3386643
306.33842
306.3382106
306.6637735
306.6818671
306.718124
306.7735074
306.8491634
306.9465247
307.0672571
307.2132075
307.3863508
307.588728
307.8223758
308.0892494
308.3911379
308.7295771
309.1057553
309.520414
309.9737344
310.4652096
310.9934953
311.5562439
312.1499287
312.7696736
313.4091133
314.0603131
314.7137745
315.3585523
315.9825007
316.5726487
317.1156998
317.598642
318.0094612
318.3379356
318.5764391
318.7206237
318.7698151
318.7294757
318.6025219
318.3955261
318.1210943
317.7895806
317.4103548
316.991044
316.5372746
316.0529013
315.5406369
315.00292
314.4427871
313.8644907
313.2737233
312.6774737
312.0836412
311.5005441
310.9364352
310.399087
309.895472
309.4315376
309.012062
308.6405793
308.319362
308.0494576
307.8307732
307.6622075
307.5418257
307.4670711
307.4350075
307.4423321
307.4859689
307.5646815
307.6758622
307.818483
307.9924147
308.1983803
308.4377846
308.7124135
309.0240231
309.3738576
309.7621526
310.1876855
310.647416
311.1362867
311.6472253
312.1713479
312.6983367
313.2169494
313.7155979
314.1829305
314.6083602
314.9824954
315.2974483
315.5470197
315.7267859
315.8306281
315.8625975
315.824609
315.7149661
315.536968
315.2950661
314.9946374
314.6418222
314.2433855
313.806593
313.3390899
312.8487722
312.3436434
311.8316547
311.3205287
310.8175739
310.329501
309.8622508
309.4208502
309.0093055
308.6305434
308.2864021
307.9776729
307.7041867
307.4649359
307.2582195
307.0818018
306.9330725
306.8091995
306.7072651
306.6243823
306.5577874
306.5049086
306.4634117
306.4312254
306.4065497
306.3878504
306.3738428
306.3634706
306.3558788
306.3503869
306.3464616
306.3436915
306.3417647
306.3404483
306.3395726
306.3390156
306.3386837
306.3384335
306.7143949
306.7347936
306.7756786
306.8380849
306.9232596
307.0327664
307.168435
307.332318
307.5266494
307.7537972
308.0162092
308.3163504
308.6566306
309.0393225
309.4664624
309.9397285
310.4602865
311.0285958
311.644171
312.305306
313.0087742
313.7495348
314.5204784
315.3122577
316.1132419
316.9096218
317.6856831
318.4242479
319.1072763
319.716628
320.235009
320.647132
320.9410284
321.1093071
321.1499759
321.0733825
320.8777554
320.5790755
320.1971739
319.7503556
319.255532
318.7265028
318.1729841
317.6004432
317.0107875
316.4038118
315.7789932
315.1370425
314.4808176
313.8155297
313.1483979
312.4880053
311.8435769
311.2243219
310.6389015
310.0950318
309.5992079
309.1565282
308.7706042
308.443548
308.1760337
307.9674313
307.81601
307.719204
307.6739305
307.6768271
307.7240078
307.8151912
307.9475497
308.1204827
308.3345076
308.5911345
308.8925668
309.2412351
309.639206
310.0875343
310.5856443
311.1308052
311.7177783
312.338719
312.9833484
313.6393722
314.293095
314.9301539
315.5362802
316.0980079
316.6032593
317.0417706
317.4053413
317.6879107
317.8854502
317.9906772
318.0142728
317.9546767
317.8117751
317.5899666
317.2946537
316.9320447
316.5090227
316.0330468
315.5120727
314.9544725
314.3689436
313.7643929
313.1497918
312.5340004
311.9255652
311.3325016
310.7620767
310.2206085
309.7133027
309.2441393
308.81582
308.42978
308.08626
307.784431
307.5225546
307.2981672
307.1082747
306.9495429
306.8184723
306.7115496
306.6253723
306.5567429
306.5027358
306.4607362
306.4284571
306.4039383
306.3855306
306.3718713
306.3618532
306.3545916
306.3493912
306.3457139
306.3431502
306.3413942
306.340222
306.3394728
306.3390265
306.3387231
306.7702662
306.7931332
306.8389733
306.9088999
307.0042781
307.1268328
307.2786063
307.4619308
307.6794056
307.9338725
308.2283853
308.5661677
308.9505563
309.3849214
309.8725542
310.4165062
311.0193685
311.6829801
312.4080639
313.1938046
314.0373953
314.9335968
315.8743654
316.8486073
317.8420922
318.8375578
319.8150045
320.7521647
321.6251253
322.4091232
323.0796127
323.6137573
323.9923595
324.2019879
324.2364177
324.1118321
323.8157076
323.3771658
322.8261834
322.1935838
321.5091737
320.7984981
320.0805019
319.366127
318.6583805
317.9541939
317.247563
316.5328336
315.8071039
315.0713023
314.3301067
313.5911534
312.8639756
312.1589666
311.4865074
310.8562975
310.2768701
309.7552604
309.2968027
308.90504
308.5817426
308.3270342
308.1396237
308.0171332
307.9565068
307.9545129
308.0065108
308.1135648
308.2728264
308.4843629
308.7495747
309.0709222
309.451436
309.89403
310.4006935
310.9716723
311.6047393
312.2946432
313.0328575
313.8076825
314.6046842
315.4074172
316.198337
316.9597859
317.6749338
318.3285741
318.9077091
319.4019022
319.8034094
320.1071337
320.308844
320.4027393
320.4075494
320.3151238
320.1290433
319.8548668
319.4989288
319.0681556
318.5699809
318.0123059
317.4034806
316.7522846
316.0678923
315.3598074
314.6377551
313.9115273
313.1907805
312.4847954
311.8022145
311.1507797
310.5370955
309.9664416
309.4426536
308.9680814
308.5436275
308.1688592
307.8421742
307.5610056
307.3220509
307.1215039
306.9552739
306.8191807
306.7091193
306.6211879
306.5517818
306.4976528
306.4559399
306.424175
306.4002702
306.3824915
306.3694239
306.3599322
306.3531206
306.348294
306.3449216
306.342606
306.3410553
306.3400603
306.3394674
306.3390957
306.8309021
306.8563823
306.9074689
306.9853668
307.0915882
307.2280695
307.3971436
307.6015354
307.8443667
308.129163
308.459853
308.8407517
309.2765163
309.7720619
310.3324149
310.9624875
311.6667532
312.4488158
313.3108795
314.2531445
315.2731839
316.3653717
317.520431
318.7251591
319.9623633
321.2110082
322.4465404
323.6413268
324.7651454
325.785764
326.6698141
327.3843422
327.8992292
328.1903923
328.241917
328.0729931
327.6556316
327.0281888
326.2355493
325.3261844
324.3494385
323.3505224
322.3662429
321.4208998
320.5239987
319.671404
318.849998
318.0439802
317.240232
316.431331
315.6162433
314.7994779
313.9895563
313.197392
312.4348824
311.7138072
311.0450174
310.4378662
309.8998326
309.4363141
309.0505751
308.7438509
308.5156052
308.3639311
308.2860783
308.2790581
308.3380324
308.465402
308.6589148
308.9194668
309.2495856
309.6527709
310.1327491
310.6925133
311.3332819
312.0535239
312.8481614
313.7081049
314.6202336
315.5678215
316.5313581
317.4896609
318.4211296
319.3049832
320.1223338
320.8569932
321.4959645
322.0296225
322.4516455
322.7588401
322.9447263
323.0153095
322.9858641
322.8480827
322.608408
322.2736946
321.8511302
321.3481763
320.7725599
320.132305
319.4357852
318.6917779
317.9095029
317.0986292
316.2692309
315.431681
314.5964753
313.77399
312.9741854
312.2062813
311.4784364
310.7974666
310.1686317
309.5955128
309.0799892
308.6223143
308.2212721
307.8743909
307.5782019
307.3285145
307.1206843
306.9498604
306.8111974
306.7000279
306.6119909
306.5431199
306.4898924
306.4492484
306.4185831
306.3957211
306.3788785
306.3666179
306.3578003
306.3515389
306.3471545
306.3441368
306.3421102
306.3408055
306.3400276
306.3395696
306.8957502
306.9239827
306.9805985
307.0669177
307.1846472
307.336013
307.5237554
307.7511551
308.0220754
308.3410065
308.7130999
309.1441735
309.6406716
310.2095526
310.858078
311.5934777
312.422471
313.3506443
314.3817106
315.5167125
316.7532556
318.084863
319.5005379
320.9845822
322.5166752
324.0721626
325.6224541
327.1353822
328.5753754
329.9034564
331.0773909
332.0526654
332.784708
333.2327859
333.3631208
333.18604
332.6601491
331.8111922
330.7077723
329.4207904
328.0254654
326.595821
325.1988594
323.885992
322.6849807
321.5970347
320.6020393
319.6696197
318.7700902
317.8814575
316.9919324
316.0993031
315.2087879
314.3305363
313.4773876
312.6630956
311.9010156
311.2031728
310.5796323
310.038116
309.5838453
309.2196026
308.9460085
308.7620017
308.6654921
308.6541031
308.7231651
308.8768481
309.113944
309.4364538
309.8482033
310.3536622
310.9568626
311.6601285
312.4628188
313.3602353
314.3428818
315.396257
316.5012194
317.6348826
318.7719333
319.8861961
320.9522359
321.9467926
322.849891
323.6455363
324.3219819
324.8716143
325.2905101
325.5776374
325.7255588
325.758949
325.6776797
325.4812448
325.1777947
324.7753554
324.2817978
323.7048904
323.0523698
322.3320431
321.5519095
320.7202914
319.8459573
318.9382188
318.0069774
317.0626991
316.1162993
315.1789294
314.2616714
313.3751618
312.5291858
311.7322842
310.9914214
310.3117484
309.6964854
309.1469292
308.6625772
308.2413317
307.8797772
307.573495
307.3173846
307.105968
306.9336594
306.7949905
306.6847855
306.5982852
306.531224
306.4798669
306.4410122
306.4119699
306.3905219
306.3748724
306.3635924
306.3555649
306.3499314
306.3460449
306.3434284
306.3417388
306.3407307
306.3401653
306.9642145
306.9953498
307.0578065
307.1530578
307.2830776
307.4504958
307.6586235
307.9115187
308.214071
308.5720885
308.9923616
309.4826803
310.0517715
310.7091232
311.464656
312.3282149
313.3088694
314.4140472
315.6485672
317.0136719
318.5061895
320.1179438
321.8355013
323.6402714
325.5089082
327.4138883
329.3240746
331.2050081
333.0186429
334.7224461
336.2682382
337.601677
338.6628285
339.3895518
339.7203347
339.6220754
339.0633996
338.0029333
336.5457871
334.7915137
332.844396
330.8150016
328.81454
326.9417861
325.2644871
323.8045293
322.5394274
321.4200759
320.3917471
319.4088669
318.4413311
317.4746881
316.5072278
315.5461876
314.6042455
313.6967187
312.839492
312.0475496
311.3339737
310.7093105
310.1812579
309.7546572
309.43178
309.2128909
309.0970353
309.0829454
309.1665201
309.3544409
309.646839
310.0471391
310.5604984
311.1920256
311.9452957
312.8207728
313.8143846
314.9164372
316.1111487
317.3768936
318.6871329
320.0119263
321.3198346
322.579954
323.7638078
324.8468591
325.8094987
326.6374668
327.3217677
327.8582028
328.2466749
328.4826282
328.5756209
328.5528449
328.4027944
328.1349067
327.7585541
327.2826659
326.7155781
326.0651371
325.3388308
324.5439423
323.6877295
322.7776247
321.8214434
320.8275827
319.8051808
318.7642051
317.7154376
316.6703337
315.6407429
314.6385099
313.674992
312.7605517
311.9040834
311.1126322
310.3911433
309.7423634
309.1668967
308.6633776
308.2287438
307.858583
307.5475045
307.2895059
307.0783084
306.9076453
306.7714933
306.6642443
306.5808191
306.5167302
306.4681012
306.431653
306.4046662
306.384927
306.370666
306.3604939
306.3533395
306.3483927
306.3450542
306.3428928
306.3416021
306.3409047
307.0356878
307.0699103
307.1385952
307.2434258
307.3867461
307.571745
307.8025206
308.084189
308.4230151
308.8265349
309.3036372
309.8645633
310.52078
311.2846767
312.1690444
313.1863152
314.3475779
315.661435
317.1328223
318.7619508
320.5435428
322.4664983
324.514052
326.6643782
328.891507
331.1663412
333.4575081
335.7316885
337.9529965
340.0811795
342.0689704
343.85941
345.3827402
346.5571547
347.289506
347.4396128
347.0108705
345.8253446
344.0205971
341.747195
339.133593
336.3320174
333.506407
330.8257614
328.4332216
326.4019571
324.7206682
323.319384
322.1076819
321.0039918
319.9491872
318.9086463
317.86843
316.8296227
315.8029561
314.8044924
313.8524404
312.9649132
312.1583977
311.4467711
310.8407705
310.3478782
309.9726046
309.7171328
309.5822514
309.5684354
309.6726179
309.9049755
310.2671182
310.7641714
311.4024183
312.1868922
313.1194628
314.1970098
315.4099428
316.7413867
318.1672466
319.6571244
321.1759955
322.6864536
324.1512292
325.5356345
326.8096007
327.9490709
328.9366508
329.7615637
330.4190649
330.9095346
331.235087
331.3922701
331.4196468
331.3150627
331.0817795
330.7315378
330.2749756
329.7217174
329.080364
328.3586545
327.5636331
326.7018319
325.7794855
324.8027834
323.7781545
322.7125668
321.6138105
320.4907258
319.3533273
318.2127806
317.0811991
315.9712602
314.8956768
313.8665854
312.894927
311.9898963
311.1585226
310.4054225
309.7327433
309.1402736
308.6256807
308.1848704
307.812403
307.5019213
307.2465572
307.0392936
306.8732625
306.7419765
306.6394895
306.5604948
306.5003695
306.4551738
306.4216187
306.3970121
306.3791911
306.36645
306.3574683
306.3512441
306.347034
306.3443018
306.3426686
306.3418111
307.1095898
307.1471434
307.2225728
307.3378514
307.4958292
307.7004548
307.9568802
308.271615
308.6526953
309.1098264
309.6544504
310.2996798
311.060038
311.9509464
312.9879216
314.1854842
315.555842
317.1074763
318.8438283
320.7623056
322.8538113
325.1029139
327.4886503
329.985819
332.5665297
335.201731
337.8624227
340.520178
343.1464792
345.7105441
348.1759529
350.4964666
352.6077199
354.4227545
355.8182015
356.581702
356.5309501
355.4099751
353.3212095
350.5318725
347.1743827
343.4630366
339.592842
335.8132835
332.3973508
329.5247218
327.2229693
325.4036055
323.9277143
322.6613465
321.5020428
320.3843839
319.275047
318.1645047
317.0589817
315.9739845
314.9295514
313.9469292
313.0463185
312.2454135
311.558577
310.9965759
310.5668379
310.2741737
310.1218523
310.1128474
310.2457554
310.5353115
310.9845764
311.6005194
312.3899798
313.3566925
314.4989984
315.8078746
317.2656918
318.8460227
320.5145066
322.2306598
323.9504452
325.6292973
327.2252009
328.701386
330.0282747
331.1844865
332.1569054
332.9399758
333.5344864
333.9461401
334.1716595
334.2427553
334.1789616
333.9759167
333.647597
333.2068893
332.6652767
332.0328031
331.3181466
330.528801
329.6712468
328.7511362
327.7735197
326.743127
325.6647084
324.54342
323.3852279
322.1972857
320.9882242
319.7682863
318.5492462
317.34409
316.166486
315.0301056
313.9478768
312.9312609
311.9896389
311.1298747
310.3560971
309.6697044
309.069528
308.552174
308.1124671
307.7439347
307.4392862
307.1908543
306.9909725
306.8322757
306.7079216
306.6117347
306.5382837
306.482902
306.4416666
306.4113464
306.3893315
306.3735539
306.362406
306.3546631
306.3494141
306.3460003
306.3439575
306.3429083
307.1854076
307.2266226
307.3094973
307.436399
307.610855
307.837815
308.1237965
308.4770753
308.9078745
309.4284939
310.053312
310.7985829
311.6819553
312.7216528
313.9352998
315.3384427
316.9428979
318.7551471
320.7750534
322.9951674
325.4008172
327.9710248
330.6801251
333.499817
336.4013155
339.3573033
342.3434324
345.3391022
348.3271046
351.2919167
354.2173098
357.0834309
359.8541851
362.469221
364.8253112
366.694497
367.8583571
366.7679505
364.5495394
361.2880345
357.1025182
352.4423646
347.3741608
342.1808325
337.3647247
333.3108222
330.1264843
327.7119049
325.8648096
324.3782269
323.0884625
321.886192
320.7099027
319.5338999
318.3566104
317.1912013
316.0587309
314.9833886
313.9892845
313.098367
312.3292132
311.6965631
311.211525
310.8823617
310.7156899
310.7177133
310.8899017
311.2521046
311.8088257
312.5687486
313.5381925
314.7177632
316.0997937
317.6665119
319.3894987
321.2304722
323.1432302
325.0765289
326.9776068
328.7959386
330.4867036
332.0134609
333.3496867
334.479089
335.3948624
336.0981885
336.5963097
336.8898764
337.0030546
336.9761671
336.7984832
336.4868055
336.0564635
335.5212175
334.8930191
334.1820424
333.3968525
332.5445756
331.6310515
330.6610014
329.6382459
328.5659936
327.4472117
326.2850756
325.0834745
323.8475301
322.5840563
321.3018656
320.0118291
318.7266519
317.4603947
316.2277955
315.0434592
313.9209991
312.8722311
311.9065193
311.030348
310.2471645
309.5574236
308.9588624
308.4469456
308.0153902
307.6567132
307.3627552
307.1251443
306.9356791
306.7866216
306.6708991
306.5822254
306.5151511
306.4650601
306.4281249
306.4012362
306.3819174
306.368235
306.3587103
306.3522393
306.3480219
306.3454955
306.3442199
307.2627321
307.3080508
307.3993072
307.5393899
307.7327048
307.9854777
308.3059301
308.7044869
309.1939505
309.7895647
310.5088789
311.3713177
312.3973771
313.6074038
315.0199844
316.6500702
318.5070675
320.5932105
322.9025578
325.4208872
328.1266077
330.9925985
333.988689
337.0843752
340.2513768
343.4657523
346.7094376
349.9711184
353.2462648
356.5364306
359.8493773
363.2012262
366.6039555
370.0578081
373.5395805
376.9850811
378.7188702
378.5464711
377.1865511
374.0361551
368.727307
363.393124
357.1770397
350.1948458
343.4781262
337.837235
333.4765219
330.2663474
327.9250664
326.1504596
324.69782
323.3996835
322.1568183
320.9212558
319.6798843
318.4413854
317.2267497
316.0627164
314.9773672
313.9972662
313.1457709
312.4423087
311.9025011
311.5389994
311.3627962
311.3837209
311.6085139
312.061405
312.7486828
313.6801074
314.8597792
316.2826668
317.9319835
319.7780448
321.7789305
323.8826056
326.0301562
328.1598079
330.2113493
332.1304386
333.8721684
335.4033544
336.7032963
337.7631181
338.5840685
339.1752087
339.5404201
339.6962083
339.7053723
339.5519644
339.2542754
338.830855
338.2979126
337.6695728
336.9578169
336.1726128
335.3221628
334.4130489
333.4503598
332.4378356
331.3780675
330.2727799
329.1232157
327.9306307
326.6968882
325.4251081
324.1202805
322.7897054
321.4431222
320.0925194
318.7517298
317.4358542
316.1605294
314.9410504
313.7914347
312.7235535
311.7464568
310.8659874
310.0846525
309.4017626
308.8138368
308.3151404
307.8982863
307.5548369
307.2758596
307.0524008
306.8758615
306.7382703
306.6324592
306.5521537
306.4919943
306.4475057
306.4150295
306.3916363
306.375028
306.36344
306.3555502
306.3503977
306.3473076
306.3457678
307.3412855
307.3912825
307.4921316
307.6473897
307.8625638
308.1454475
308.5063069
308.9580704
309.5164365
310.1998009
311.0288923
312.0260139
313.2138192
314.6136195
316.2433222
318.1152295
320.2340407
322.5954621
325.1857924
327.9826938
330.9571239
334.0761499
337.3061825
340.6161219
343.9799961
347.3788809
350.8021052
354.2478686
357.7233711
361.2449353
364.8406162
368.5586532
372.465383
376.6852059
381.5388123
364.5349178
360.2756398
361.3961915
362.4279092
362.9352279
368.4923272
376.2040789
369.4756266
360.1140506
350.7467974
343.0309646
337.2151633
333.0367416
330.0911734
327.9652248
326.3176783
324.9113172
323.6010772
322.3112154
321.013479
319.7098335
318.4199504
317.1725596
315.999638
314.9326329
314.0002004
313.2271704
312.6345568
312.2404158
312.0612246
312.1111272
312.404149
312.9680905
313.811429
314.943481