/*--------------------------------*- C++ -*----------------------------------*\
| =========                 |                                                 |
| \\      /  F ield         | OpenFOAM: The Open Source CFD Toolbox           |
|  \\    /   O peration     | Version:  2412                                  |
|   \\  /    A nd           | Website:  www.openfoam.com                      |
|    \\/     M anipulation  |                                                 |
\*---------------------------------------------------------------------------*/
FoamFile
{
    version     2.0;
    format      ascii;
    arch        "LSB;label=32;scalar=64";
    class       volVectorField;
    location    "0.05";
    object      U;
}
// * * * * * * * * * * * * * * * * * * * * * * * * * * * * * * * * * * * * * //

dimensions      [0 1 -1 0 0 0 0];

internalField   nonuniform List<vector> 
12008
(
(-9.339204407e-06 -2.472254084e-05 0)
(9.957599457e-06 -4.09928082e-05 0)
(5.339467662e-05 -4.330910581e-05 0)
(9.725617768e-05 -4.218243787e-05 0)
(0.0001326418197 -4.013395711e-05 0)
(0.0001580965307 -3.790333312e-05 0)
(0.0001736626926 -3.569267392e-05 0)
(0.000179550049 -3.344654176e-05 0)
(0.0001756845014 -3.106746476e-05 0)
(0.0001617276522 -2.849392207e-05 0)
(0.0001372764629 -2.571089153e-05 0)
(0.0001020476518 -2.273589066e-05 0)
(5.600640125e-05 -1.960681488e-05 0)
(-5.651426833e-07 -1.637276802e-05 0)
(-6.704410537e-05 -1.308487523e-05 0)
(-0.0001424707502 -9.792608418e-06 0)
(-0.0002255729378 -6.5416089e-06 0)
(-0.0003148061403 -3.371906914e-06 0)
(-0.0004084103862 -3.148379153e-07 0)
(-0.000504466282 2.611415497e-06 0)
(-0.0006010244173 5.405631049e-06 0)
(-0.0006961830143 8.082024614e-06 0)
(-0.0007882105477 1.067210737e-05 0)
(-0.000875653522 1.322214483e-05 0)
(-0.0009574277242 1.57891203e-05 0)
(-0.001032874787 1.843057103e-05 0)
(-0.001101774467 2.119619604e-05 0)
(-0.001164306575 2.411482322e-05 0)
(-0.001220958288 2.718204812e-05 0)
(-0.001272374039 3.034871577e-05 0)
(-0.001319190239 3.352285063e-05 0)
(-0.001361884219 3.656832951e-05 0)
(-0.001400605988 3.93011997e-05 0)
(-0.001435037892 4.150301149e-05 0)
(-0.001464403348 4.296941362e-05 0)
(-0.001487513247 4.351658606e-05 0)
(-0.001502842464 4.300053124e-05 0)
(-0.001508697575 4.133313178e-05 0)
(-0.001503412971 3.850357218e-05 0)
(-0.001485549901 3.457220315e-05 0)
(-0.001454069239 2.966208016e-05 0)
(-0.001408462398 2.395805995e-05 0)
(-0.001348834016 1.769142979e-05 0)
(-0.001275910163 1.112002617e-05 0)
(-0.001190963369 4.498793382e-06 0)
(-0.001095685854 -1.941473774e-06 0)
(-0.0009920410401 -8.010349907e-06 0)
(-0.0008821350975 -1.356543201e-05 0)
(-0.0007680780437 -1.851939417e-05 0)
(-0.0006519124305 -2.282610357e-05 0)
(-0.0005355249609 -2.647724529e-05 0)
(-0.0004206335172 -2.94911596e-05 0)
(-0.0003087665296 -3.189848766e-05 0)
(-0.0002012759565 -3.374209563e-05 0)
(-9.934084626e-05 -3.506805799e-05 0)
(-3.977398418e-06 -3.592419183e-05 0)
(8.395455252e-05 -3.635816456e-05 0)
(0.0001637347722 -3.641007909e-05 0)
(0.0002347796242 -3.612499748e-05 0)
(0.0002966359113 -3.554125523e-05 0)
(0.0003489419946 -3.469434894e-05 0)
(0.0003914160779 -3.36192829e-05 0)
(0.0004238247831 -3.233966153e-05 0)
(0.00044595552 -3.088487467e-05 0)
(0.0004575936661 -2.928103106e-05 0)
(0.0004584740834 -2.754224295e-05 0)
(0.0004482875911 -2.568183535e-05 0)
(0.0004266850928 -2.370612574e-05 0)
(0.0003932719514 -2.162018664e-05 0)
(0.0003476354813 -1.94254854e-05 0)
(0.0002893747208 -1.712060598e-05 0)
(0.0002181529801 -1.470540516e-05 0)
(0.0001337437451 -1.218194969e-05 0)
(3.608940641e-05 -9.557443243e-06 0)
(-7.463879377e-05 -6.84714587e-06 0)
(-0.0001980207291 -4.055582672e-06 0)
(-0.0003333677265 -1.160725912e-06 0)
(-0.000479827884 1.871917734e-06 0)
(-0.0006363592546 5.000237936e-06 0)
(-0.0008015389509 8.110304947e-06 0)
(-0.000973406081 1.109498937e-05 0)
(-0.001149524098 1.385849425e-05 0)
(-0.001327058877 1.629377888e-05 0)
(-0.00150282004 1.829054014e-05 0)
(-0.001673316975 1.973911897e-05 0)
(-0.00183482745 2.053416408e-05 0)
(-0.001983478598 2.058222908e-05 0)
(-0.002115345292 1.980863839e-05 0)
(-0.002226573839 1.816494714e-05 0)
(-0.002313528562 1.563684769e-05 0)
(-0.00237294433 1.224674303e-05 0)
(-0.002402130225 8.05861774e-06 0)
(-0.002399118218 3.187237917e-06 0)
(-0.002362810678 -2.215583168e-06 0)
(-0.002293167551 -7.946692276e-06 0)
(-0.00219146913 -1.369247028e-05 0)
(-0.002060247605 -1.917484696e-05 0)
(-0.001902970688 -2.430532433e-05 0)
(-0.001723487727 -2.89994109e-05 0)
(-0.001526158402 -3.314361853e-05 0)
(-0.001315622813 -3.664791261e-05 0)
(-0.001096644143 -3.945321321e-05 0)
(-0.0008739406904 -4.153090843e-05 0)
(-0.0006520224074 -4.288315087e-05 0)
(-0.0004350441687 -4.354221101e-05 0)
(-0.0002266839242 -4.356616594e-05 0)
(-3.005526369e-05 -4.303209426e-05 0)
(0.0001523449777 -4.203009067e-05 0)
(0.0003186532135 -4.065708574e-05 0)
(0.0004676207539 -3.901048872e-05 0)
(0.0005985667109 -3.718173625e-05 0)
(0.0007113129418 -3.525363539e-05 0)
(0.0008061095852 -3.329900394e-05 0)
(0.0008835514854 -3.137896048e-05 0)
(0.0009444984304 -2.95404184e-05 0)
(0.0009899864201 -2.780633092e-05 0)
(0.00102115217 -2.618635668e-05 0)
(0.001039173318 -2.469521437e-05 0)
(0.001045243467 -2.334475067e-05 0)
(0.001040550125 -2.213930608e-05 0)
(0.001026246478 -2.107792107e-05 0)
(0.001003426646 -2.015697623e-05 0)
(0.0009731121102 -1.936684824e-05 0)
(0.0009362453914 -1.869865248e-05 0)
(0.0008936916193 -1.814162344e-05 0)
(0.0008462402866 -1.768668322e-05 0)
(0.0007946203648 -1.732727948e-05 0)
(0.0007395146833 -1.705743017e-05 0)
(0.0006815775155 -1.687568844e-05 0)
(0.0006214483769 -1.678435217e-05 0)
(0.0005597534763 -1.678168112e-05 0)
(0.0004970922479 -1.686507184e-05 0)
(0.000434010309 -1.702953129e-05 0)
(0.0003709521709 -1.726376827e-05 0)
(0.0003082402263 -1.757082124e-05 0)
(0.0002461317968 -1.799945844e-05 0)
(0.0001850601338 -1.868062777e-05 0)
(0.0001262475067 -1.984803478e-05 0)
(7.244278393e-05 -2.145631591e-05 0)
(2.247125531e-05 -1.541358252e-05 0)
(-1.385102055e-05 -8.284566474e-05 0)
(1.941330398e-05 -0.000149498888 0)
(7.944970734e-05 -0.0001629358775 0)
(0.0001356074777 -0.000152806734 0)
(0.0001727185476 -0.0001340668163 0)
(0.0001868816397 -0.0001131128867 0)
(0.000177298232 -9.18397014e-05 0)
(0.0001438256348 -7.023590865e-05 0)
(8.608037002e-05 -4.785940694e-05 0)
(3.422692266e-06 -2.447142101e-05 0)
(-0.0001046871707 -1.918026809e-07 0)
(-0.0002383203616 2.456120342e-05 0)
(-0.0003967825406 4.917757492e-05 0)
(-0.0005784817448 7.295934254e-05 0)
(-0.0007809151625 9.519518702e-05 0)
(-0.001000660105 0.0001152020772 0)
(-0.001233465651 0.0001323619935 0)
(-0.001474378592 0.0001461557746 0)
(-0.001717915985 0.0001561992858 0)
(-0.001958282604 0.0001622820178 0)
(-0.002189632534 0.0001643952292 0)
(-0.002406358572 0.0001627486128 0)
(-0.00260339409 0.0001577694559 0)
(-0.002776493537 0.0001500784527 0)
(-0.002922468747 0.0001404427567 0)
(-0.00303933831 0.0001296931554 0)
(-0.003126371798 0.0001186411606 0)
(-0.003184021194 0.0001079746494 0)
(-0.003213730114 9.81652915e-05 0)
(-0.003217615911 8.939163508e-05 0)
(-0.003198133436 8.154598611e-05 0)
(-0.003157769524 7.424184333e-05 0)
(-0.003098710755 6.682541399e-05 0)
(-0.003022552195 5.849273756e-05 0)
(-0.002930282059 4.85029901e-05 0)
(-0.002822344297 3.624979378e-05 0)
(-0.002698734675 2.132223296e-05 0)
(-0.002559227522 3.590765824e-06 0)
(-0.002403650884 -1.672848915e-05 0)
(-0.002232114926 -3.912473722e-05 0)
(-0.002045258368 -6.285342885e-05 0)
(-0.00184433741 -8.701312013e-05 0)
(-0.001631241402 -0.0001106554726 0)
(-0.001408401774 -0.0001329013657 0)
(-0.001178568059 -0.0001530545067 0)
(-0.0009445811509 -0.0001706443531 0)
(-0.0007091346505 -0.0001854138118 0)
(-0.0004746786779 -0.0001972979995 0)
(-0.00024328037 -0.0002063635331 0)
(-1.672450825e-05 -0.0002127618353 0)
(0.0002035855527 -0.0002166760207 0)
(0.0004163343611 -0.0002182854614 0)
(0.0006204153001 -0.000217748245 0)
(0.0008147205528 -0.0002151905055 0)
(0.0009981075801 -0.0002107149646 0)
(0.001169386494 -0.0002044169357 0)
(0.001327329373 -0.0001963951565 0)
(0.001470696811 -0.0001867599726 0)
(0.001598261234 -0.0001756141153 0)
(0.001708839421 -0.0001630773851 0)
(0.001801300861 -0.0001492515016 0)
(0.001874532422 -0.0001342098423 0)
(0.001927418128 -0.0001180017857 0)
(0.001958818955 -0.0001006410094 0)
(0.001967509702 -8.21102123e-05 0)
(0.001952091731 -6.235706057e-05 0)
(0.001911038284 -4.132619442e-05 0)
(0.001842708 -1.896270965e-05 0)
(0.001745359929 4.76574289e-06 0)
(0.001617225085 2.984976135e-05 0)
(0.001456601436 5.621921172e-05 0)
(0.001261982514 8.372362773e-05 0)
(0.001032193805 0.0001121224599 0)
(0.0007665367813 0.0001410783635 0)
(0.0004649356229 0.0001701544514 0)
(0.0001279543628 0.0001988344892 0)
(-0.000242746835 0.0002266341493 0)
(-0.000645026091 0.0002532759085 0)
(-0.001075975591 0.0002781453319 0)
(-0.001531549781 0.0003001923153 0)
(-0.002006319036 0.0003183500966 0)
(-0.002493618647 0.0003316416403 0)
(-0.002985733565 0.0003391552609 0)
(-0.00347402083 0.0003400758324 0)
(-0.003949089559 0.0003337109906 0)
(-0.004401017771 0.0003195212284 0)
(-0.004819605481 0.0002971640739 0)
(-0.005194672295 0.0002665403539 0)
(-0.005516399046 0.0002278385705 0)
(-0.005775709857 0.0001815733524 0)
(-0.00596466658 0.0001286107884 0)
(-0.006076919574 7.017936883e-05 0)
(-0.006108069973 7.855995053e-06 0)
(-0.006055980383 -5.645649964e-05 0)
(-0.00592111761 -0.0001205012772 0)
(-0.005707280182 -0.0001817556197 0)
(-0.005420467885 -0.0002381839513 0)
(-0.005068583732 -0.0002884680576 0)
(-0.004661314532 -0.000331558183 0)
(-0.004209271905 -0.0003666718445 0)
(-0.003723713126 -0.0003933402625 0)
(-0.003216112391 -0.0004114152585 0)
(-0.002697754383 -0.0004210599483 0)
(-0.002179356556 -0.0004227262173 0)
(-0.001670733041 -0.0004171167227 0)
(-0.001180520506 -0.0004051321967 0)
(-0.0007159867858 -0.0003878063407 0)
(-0.0002829275729 -0.0003662367142 0)
(0.0001143543245 -0.0003415222864 0)
(0.0004729905329 -0.0003147077951 0)
(0.0007914220588 -0.0002867402073 0)
(0.00106923447 -0.0002584396666 0)
(0.00130696691 -0.0002304889246 0)
(0.001505921154 -0.0002034344574 0)
(0.001667972002 -0.0001776777843 0)
(0.001795338219 -0.0001534744782 0)
(0.001890531337 -0.0001309591818 0)
(0.001956134508 -0.000110217763 0)
(0.001994747988 -9.128566963e-05 0)
(0.002008929041 -7.414622284e-05 0)
(0.002001143048 -5.874573891e-05 0)
(0.001973722132 -4.500169003e-05 0)
(0.001928843459 -3.281637861e-05 0)
(0.001868521999 -2.208017243e-05 0)
(0.001794618647 -1.268966678e-05 0)
(0.001708844394 -4.553979513e-06 0)
(0.001612798719 2.392635258e-06 0)
(0.001508002562 8.187459899e-06 0)
(0.00139593284 1.284400661e-05 0)
(0.001278043094 1.636724598e-05 0)
(0.001155757607 1.877391399e-05 0)
(0.001030432641 2.01340963e-05 0)
(0.0009032703526 2.059207771e-05 0)
(0.0007752111979 2.035916189e-05 0)
(0.000646855958 1.963683473e-05 0)
(0.000518526873 1.838830163e-05 0)
(0.0003906243503 1.59688983e-05 0)
(0.0002644996106 1.073780339e-05 0)
(0.0001451696213 5.321554655e-07 0)
(3.952842028e-05 -8.842125619e-06 0)
(-1.401223353e-05 -0.0001391032398 0)
(1.175777926e-05 -0.0002529545265 0)
(5.486132813e-05 -0.0002716445453 0)
(8.665688497e-05 -0.0002447343726 0)
(9.200066326e-05 -0.0001996625186 0)
(6.64018494e-05 -0.0001490967315 0)
(8.608394616e-06 -9.71854942e-05 0)
(-8.175345269e-05 -4.427855578e-05 0)
(-0.0002051626722 1.020445616e-05 0)
(-0.0003620947655 6.642759669e-05 0)
(-0.0005526228976 0.0001237851777 0)
(-0.0007759494032 0.0001809969169 0)
(-0.001030061343 0.0002363527181 0)
(-0.001311566025 0.0002879532244 0)
(-0.001615659431 0.0003338840561 0)
(-0.001936200841 0.0003723426345 0)
(-0.0022658763 0.000401741877 0)
(-0.002596433691 0.000420805501 0)
(-0.002918988004 0.0004286618048 0)
(-0.003224393517 0.000424933504 0)
(-0.003503669309 0.0004098073495 0)
(-0.003748464897 0.0003840744918 0)
(-0.00395152332 0.0003491103082 0)
(-0.004107097147 0.0003068024355 0)
(-0.004211293357 0.0002594263694 0)
(-0.004262271636 0.0002094249881 0)
(-0.00426028708 0.0001592136135 0)
(-0.004207557145 0.0001109051329 0)
(-0.004107947377 6.607621831e-05 0)
(-0.00396645677 2.561293757e-05 0)
(-0.003788742123 -1.027851782e-05 0)
(-0.003580624572 -4.204182353e-05 0)
(-0.003347593727 -7.074618093e-05 0)
(-0.003094387372 -9.781572134e-05 0)
(-0.002824944437 -0.0001245995234 0)
(-0.00254243079 -0.0001522105959 0)
(-0.002249370948 -0.0001814269944 0)
(-0.001947882238 -0.000212538899 0)
(-0.001639927723 -0.0002452299659 0)
(-0.001327557897 -0.0002786618681 0)
(-0.001013035541 -0.0003116925664 0)
(-0.0006989624678 -0.0003430135451 0)
(-0.0003882161461 -0.000371353108 0)
(-8.378233583e-05 -0.000395721097 0)
(0.0002116414896 -0.000415568541 0)
(0.0004958407313 -0.0004308011038 0)
(0.0007674975296 -0.000441676574 0)
(0.001026034537 -0.0004486531437 0)
(0.001271626685 -0.0004522620753 0)
(0.001504987918 -0.0004529890369 0)
(0.001727152783 -0.0004511823431 0)
(0.001939165204 -0.0004469989141 0)
(0.002141834212 -0.000440415015 0)
(0.002335526011 -0.0004312622431 0)
(0.00252005673 -0.0004192995884 0)
(0.002694675149 -0.0004042825838 0)
(0.002858121202 -0.000386022192 0)
(0.003008726158 -0.0003644070067 0)
(0.003144526443 -0.0003394090731 0)
(0.003263366743 -0.0003110431863 0)
(0.003362978308 -0.0002793600588 0)
(0.003441011548 -0.0002443885055 0)
(0.003495023535 -0.0002061089941 0)
(0.003522483606 -0.0001644343845 0)
(0.003520684863 -0.0001192000414 0)
(0.003486716914 -7.020372927e-05 0)
(0.003417459103 -1.723339983e-05 0)
(0.003309631346 3.988324208e-05 0)
(0.003159829887 0.000101241157 0)
(0.002964642093 0.0001667916581 0)
(0.002720796926 0.0002362924313 0)
(0.002425359719 0.000309263791 0)
(0.002075946923 0.00038496128 0)
(0.001670943009 0.000462370663 0)
(0.001209706677 0.0005402166587 0)
(0.000692786713 0.0006169711226 0)
(0.0001217027992 0.000691077534 0)
(-0.0005003578239 0.0007612438262 0)
(-0.001168726743 0.0008255490872 0)
(-0.001877106206 0.0008812007012 0)
(-0.002616850338 0.0009254037038 0)
(-0.003377471445 0.0009556293701 0)
(-0.004146887126 0.0009695744989 0)
(-0.004911583366 0.0009652473863 0)
(-0.00565691644 0.0009410454738 0)
(-0.006367479072 0.0008958406246 0)
(-0.007027531438 0.0008290818113 0)
(-0.007621500789 0.0007408990243 0)
(-0.008134533722 0.0006321940775 0)
(-0.008553085435 0.0005047054504 0)
(-0.008865505212 0.0003610420281 0)
(-0.009062670738 0.0002046841668 0)
(-0.009138479688 3.990224366e-05 0)
(-0.009090218363 -0.0001282824043 0)
(-0.008919104355 -0.0002940657247 0)
(-0.008631217885 -0.0004515628052 0)
(-0.008234868751 -0.0005960103432 0)
(-0.007742263727 -0.0007239401261 0)
(-0.007167385533 -0.0008326234315 0)
(-0.006525786773 -0.0009201995533 0)
(-0.00583396651 -0.0009856393659 0)
(-0.005108748947 -0.001028734698 0)
(-0.004366683637 -0.001050071166 0)
(-0.003623477889 -0.001050964247 0)
(-0.002893493233 -0.001033353283 0)
(-0.00218933566 -0.0009996599066 0)
(-0.0015215672 -0.000952620474 0)
(-0.0008985509689 -0.0008951105276 0)
(-0.0003264276816 -0.000829979229 0)
(0.0001907903268 -0.0007599100221 0)
(0.0006510247014 -0.0006873109212 0)
(0.001053867518 -0.0006142451679 0)
(0.001400282505 -0.0005424003857 0)
(0.001692323244 -0.0004730878466 0)
(0.001932761424 -0.0004072795305 0)
(0.002124929025 -0.0003455977154 0)
(0.002272516461 -0.0002883561957 0)
(0.002379239616 -0.0002357124888 0)
(0.002448793342 -0.0001876904421 0)
(0.00248476518 -0.0001441934564 0)
(0.002490563882 -0.0001050414903 0)
(0.002469381249 -7.000125474e-05 0)
(0.002424170394 -3.880586607e-05 0)
(0.00235764943 -1.118330331e-05 0)
(0.002272300779 1.312698693e-05 0)
(0.002170421425 3.433871738e-05 0)
(0.002054157093 5.260491739e-05 0)
(0.001925546615 6.801328575e-05 0)
(0.001786568012 8.059935609e-05 0)
(0.001639166429 9.038154302e-05 0)
(0.001485236788 9.743365594e-05 0)
(0.001326561399 0.0001019577712 0)
(0.001164698415 0.0001043542811 0)
(0.001000827983 0.0001052152185 0)
(0.0008356481374 0.0001051385423 0)
(0.0006694624455 0.0001042444864 0)
(0.0005026454107 0.0001012852059 0)
(0.0003367614079 9.244053562e-05 0)
(0.0001794062951 7.051547171e-05 0)
(4.387227929e-05 2.952872255e-05 0)
(-1.51630978e-05 -0.0001885690522 0)
(-4.954503888e-06 -0.0003367193007 0)
(1.108443395e-05 -0.0003514048187 0)
(8.2663454e-06 -0.0003005650808 0)
(-2.620531864e-05 -0.0002227815082 0)
(-9.596739481e-05 -0.0001363657703 0)
(-0.0002018696541 -4.758061074e-05 0)
(-0.0003440451183 4.278345547e-05 0)
(-0.0005226051634 0.0001352480615 0)
(-0.0007374359283 0.0002296175266 0)
(-0.0009876843497 0.0003244291666 0)
(-0.001271241803 0.0004171189566 0)
(-0.001584395592 0.0005044340776 0)
(-0.001921673055 0.0005828412038 0)
(-0.002275856487 0.0006488460677 0)
(-0.002638137961 0.0006992340819 0)
(-0.002998385009 0.00073126749 0)
(-0.003345505345 0.0007428641173 0)
(-0.003667901972 0.0007327687208 0)
(-0.003954007599 0.0007007058257 0)
(-0.004192872598 0.0006474915355 0)
(-0.004374795044 0.0005750895569 0)
(-0.004491925797 0.0004865479984 0)
(-0.004538777166 0.0003858383358 0)
(-0.004512646685 0.0002776210029 0)
(-0.004413762025 0.0001668019293 0)
(-0.004245328165 5.818535053e-05 0)
(-0.004013167259 -4.407364751e-05 0)
(-0.003725289837 -0.0001368983453 0)
(-0.003390833025 -0.0002184117969 0)
(-0.003019762357 -0.0002879306346 0)
(-0.00262189685 -0.0003460729745 0)
(-0.002206170304 -0.0003946301287 0)
(-0.001780236733 -0.0004360640886 0)
(-0.001350413695 -0.0004727203469 0)
(-0.0009214337749 -0.0005065649356 0)
(-0.0004971137013 -0.0005389554378 0)
(-8.056360854e-05 -0.000570466103 0)
(0.0003252419995 -0.0006008675148 0)
(0.0007174378819 -0.0006293146445 0)
(0.001093376476 -0.0006545418301 0)
(0.001450078497 -0.0006750933544 0)
(0.001784483898 -0.0006897451618 0)
(0.002093759911 -0.0006979057441 0)
(0.002375836511 -0.0006998121405 0)
(0.002629871519 -0.0006964426123 0)
(0.002856531858 -0.0006892239595 0)
(0.00305795508 -0.0006796777085 0)
(0.003237526115 -0.0006691582207 0)
(0.003399479087 -0.0006586363635 0)
(0.003548396067 -0.0006485308568 0)
(0.00368863798 -0.0006386644117 0)
(0.003823843342 -0.0006283366517 0)
(0.003956549125 -0.0006164907521 0)
(0.004088000627 -0.0006019129413 0)
(0.004218125566 -0.0005834162864 0)
(0.004345650856 -0.0005599845016 0)
(0.004468319794 -0.0005308513924 0)
(0.004583131954 -0.0004955006686 0)
(0.004686570227 -0.0004536233363 0)
(0.004774790236 -0.0004050359885 0)
(0.004843735678 -0.0003496039946 0)
(0.004889194605 -0.0002871641846 0)
(0.004906824606 -0.0002174527966 0)
(0.004892062989 -0.0001401054525 0)
(0.004840183025 -5.473038516e-05 0)
(0.004746200709 3.910993131e-05 0)
(0.004604969939 0.0001417269196 0)
(0.004411246167 0.0002532811773 0)
(0.004159820088 0.0003736405667 0)
(0.003845722801 0.0005022854268 0)
(0.003464470134 0.0006382325772 0)
(0.003012335293 0.0007799882976 0)
(0.002486619572 0.000925542682 0)
(0.001885905252 0.001072403989 0)
(0.001210309994 0.001217674117 0)
(0.0004615923082 0.001358243905 0)
(-0.0003577858805 0.001491218249 0)
(-0.00124079992 0.001612168872 0)
(-0.002179124745 0.001715792244 0)
(-0.003161106427 0.001796925659 0)
(-0.004172628868 0.00185087157 0)
(-0.005197480375 0.001873392967 0)
(-0.006217496571 0.001860882849 0)
(-0.007212993985 0.001810530419 0)
(-0.00816330109 0.001720499822 0)
(-0.009047383412 0.001590116352 0)
(-0.00984455878 0.001420037644 0)
(-0.01053526665 0.001212386681 0)
(-0.01110185495 0.0009708278257 0)
(-0.01152932837 0.0007005796837 0)
(-0.01180614109 0.0004083712609 0)
(-0.01192475808 0.0001022580957 0)
(-0.01188197694 -0.0002084692448 0)
(-0.01168008145 -0.0005132282976 0)
(-0.01132663853 -0.0008017342331 0)
(-0.0108328844 -0.001065742589 0)
(-0.01021425819 -0.001298874937 0)
(-0.009488579345 -0.001496280137 0)
(-0.008675793196 -0.001654630379 0)
(-0.007797163317 -0.001772108282 0)
(-0.006874493704 -0.001848408795 0)
(-0.005929331648 -0.00188469549 0)
(-0.00498219858 -0.001883483804 0)
(-0.004051895988 -0.001848444832 0)
(-0.003154930714 -0.001784138735 0)
(-0.002305099113 -0.00169570284 0)
(-0.001513254484 -0.00158852126 0)
(-0.0007872592147 -0.00146791143 0)
(-0.0001321066828 -0.001338856087 0)
(0.0004498146599 -0.001205798794 0)
(0.0009583527693 -0.001072512114 0)
(0.00139516209 -0.000942038063 0)
(0.001763325551 -0.0008166794636 0)
(0.002066761646 -0.0006981422423 0)
(0.002310131243 -0.0005874932049 0)
(0.002498480031 -0.0004852133448 0)
(0.002636770261 -0.0003914763284 0)
(0.00272985771 -0.0003062028682 0)
(0.002782375979 -0.0002291173887 0)
(0.002798647976 -0.0001598114781 0)
(0.002782655504 -9.779874211e-05 0)
(0.002738029954 -4.2558812e-05 0)
(0.002668063038 6.428155592e-06 0)
(0.002575735206 4.963559781e-05 0)
(0.00246377146 8.745067586e-05 0)
(0.002334692607 0.0001201458051 0)
(0.002190879822 0.0001478799096 0)
(0.002034626186 0.0001707265516 0)
(0.001868167913 0.0001887423751 0)
(0.001693671774 0.0002020774539 0)
(0.001513162094 0.0002111181808 0)
(0.001328393705 0.0002165929288 0)
(0.001140695994 0.0002195553921 0)
(0.0009508762154 0.0002210744755 0)
(0.0007593638243 0.0002213959458 0)
(0.0005668276582 0.0002183549895 0)
(0.0003755910025 0.0002049336538 0)
(0.0001957612447 0.0001664511881 0)
(4.528367108e-05 8.065048971e-05 0)
(-1.634879924e-05 -0.0002284626828 0)
(-2.098493373e-05 -0.0003970530355 0)
(-2.93819606e-05 -0.0003989077038 0)
(-6.229293311e-05 -0.0003187904349 0)
(-0.0001296703133 -0.0002049796759 0)
(-0.0002336226763 -8.049479511e-05 0)
(-0.0003740478332 4.672327495e-05 0)
(-0.0005503294343 0.0001755418035 0)
(-0.0007617579052 0.0003062610596 0)
(-0.001007196303 0.0004380452211 0)
(-0.001284485426 0.0005682413065 0)
(-0.001589904261 0.0006926574613 0)
(-0.001917831662 0.0008061729043 0)
(-0.002260630552 0.0009033462145 0)
(-0.002608733106 0.0009789064075 0)
(-0.002950890911 0.001028134429 0)
(-0.00327456381 0.0010471784 0)
(-0.003566426956 0.001033333595 0)
(-0.003812986622 0.0009853034563 0)
(-0.004001282591 0.0009034154337 0)
(-0.004119634093 0.0007897701117 0)
(-0.004158429504 0.0006483038909 0)
(-0.004110869866 0.0004846370912 0)
(-0.003973521537 0.0003057458507 0)
(-0.003746815155 0.0001195940383 0)
(-0.003434976028 -6.564302878e-05 0)
(-0.003046310827 -0.0002421621837 0)
(-0.002591755989 -0.000403164345 0)
(-0.002085528538 -0.0005437093103 0)
(-0.001542319703 -0.0006612884834 0)
(-0.0009764710828 -0.0007554636633 0)
(-0.0004011943936 -0.0008278310893 0)
(0.0001722444995 -0.0008815967548 0)
(0.0007344863083 -0.0009207864198 0)
(0.001278209531 -0.0009496109753 0)
(0.001799383064 -0.0009717481066 0)
(0.002294964323 -0.0009893658189 0)
(0.002762699329 -0.001003349531 0)
(0.003200592595 -0.001013523608 0)
(0.003606534946 -0.001018948783 0)
(0.003978135864 -0.00101811831 0)
(0.004312577429 -0.001009384993 0)
(0.004606721977 -0.0009916505561 0)
(0.004857641594 -0.000965016105 0)
(0.005063509669 -0.0009310765359 0)
(0.005224463016 -0.0008926636727 0)
(0.005343068894 -0.0008532150037 0)
(0.005424281166 -0.0008161021777 0)
(0.005475134281 -0.000784092065 0)
(0.005504074764 -0.0007589293992 0)
(0.00552015192 -0.0007410707117 0)
(0.005532017041 -0.0007296544389 0)
(0.005547050867 -0.0007226990048 0)
(0.005570706531 -0.0007174777612 0)
(0.005606160131 -0.0007109496066 0)
(0.005654278652 -0.0007001518559 0)
(0.005713791057 -0.0006825004516 0)
(0.005781644925 -0.0006559596497 0)
(0.005853440681 -0.0006190720228 0)
(0.005923830707 -0.0005708718986 0)
(0.005986870812 -0.0005107511618 0)
(0.006036264938 -0.0004382938906 0)
(0.006065524987 -0.0003531277217 0)
(0.006068016087 -0.0002547914653 0)
(0.006036931755 -0.0001427245633 0)
(0.005965389398 -1.633775727e-05 0)
(0.005846265801 0.0001250262945 0)
(0.005672317135 0.0002818100395 0)
(0.005436306577 0.00045420412 0)
(0.005131102548 0.000641923169 0)
(0.004749939926 0.0008440558481 0)
(0.004286696403 0.001058948178 0)
(0.003736196494 0.001284136587 0)
(0.003094512235 0.001516343728 0)
(0.002359237624 0.001751538669 0)
(0.001529780763 0.001985091879 0)
(0.0006075810976 0.00221212107 0)
(-0.0004056956999 0.002427305268 0)
(-0.001500634064 0.002622279946 0)
(-0.002666861998 0.002788427472 0)
(-0.003889728768 0.002917684786 0)
(-0.005151472436 0.003002548319 0)
(-0.006431617278 0.003036271177 0)
(-0.007707132784 0.003013164625 0)
(-0.008953029002 0.002928903539 0)
(-0.01014309316 0.002780843605 0)
(-0.01125075165 0.002568314781 0)
(-0.01225003124 0.002292860272 0)
(-0.01311655965 0.001958391665 0)
(-0.01382854991 0.001571244113 0)
(-0.01436769245 0.001140127025 0)
(-0.01472008943 0.0006759954108 0)
(-0.01487684654 0.0001917183071 0)
(-0.01483422004 -0.0002980871837 0)
(-0.01459577063 -0.0007769173722 0)
(-0.01417045945 -0.00122916142 0)
(-0.01357207915 -0.001642531239 0)
(-0.01281902378 -0.00200721091 0)
(-0.01193277672 -0.002315639581 0)
(-0.01093762164 -0.002562532018 0)
(-0.009859711862 -0.002744942521 0)
(-0.008726120605 -0.002862314162 0)
(-0.007563827298 -0.002916440183 0)
(-0.006398708079 -0.002911298577 0)
(-0.005254599655 -0.002852750247 0)
(-0.004152503017 -0.002748116804 0)
(-0.003109983334 -0.002605677378 0)
(-0.002140807428 -0.002434128767 0)
(-0.001254835035 -0.002242065512 0)
(-0.0004581491369 -0.002037527684 0)
(0.0002466083578 -0.001827654621 0)
(0.0008597435534 -0.001618460332 0)
(0.001383918239 -0.001414728496 0)
(0.001823641606 -0.001219989715 0)
(0.00218439226 -0.001036835812 0)
(0.00247259299 -0.0008668306645 0)
(0.00269507921 -0.0007105493572 0)
(0.002858406349 -0.000568060552 0)
(0.002968884352 -0.0004390359246 0)
(0.003032418766 -0.000322862312 0)
(0.003054412463 -0.0002187489797 0)
(0.003039747622 -0.0001258156205 0)
(0.002992795056 -4.316042592e-05 0)
(0.002917443252 3.008669512e-05 0)
(0.002817153076 9.469952282e-05 0)
(0.002695039433 0.000151300418 0)
(0.002553936392 0.0002003328915 0)
(0.002396484748 0.000242063634 0)
(0.00222519809 0.0002766294063 0)
(0.002042502444 0.0003041432453 0)
(0.001850730895 0.0003248573366 0)
(0.001652059363 0.000339358662 0)
(0.00144838672 0.0003487211671 0)
(0.001241194027 0.000354463322 0)
(0.001031484777 0.0003580741477 0)
(0.0008200002915 0.0003597670568 0)
(0.0006079683682 0.0003560779812 0)
(0.0003987088678 0.0003360147063 0)
(0.0002043529185 0.0002760861108 0)
(4.575049056e-05 0.0001369782424 0)
(-1.709923625e-05 -0.0002606678268 0)
(-3.151795303e-05 -0.0004395759382 0)
(-5.559856083e-05 -0.0004226552573 0)
(-0.0001070118219 -0.0003103750022 0)
(-0.0001931989518 -0.0001598104902 0)
(-0.0003146335169 2.016563524e-06 0)
(-0.0004699204189 0.0001658594838 0)
(-0.0006572625289 0.0003302885668 0)
(-0.0008747129134 0.0004952683031 0)
(-0.00111973201 0.0006591102645 0)
(-0.001388541991 0.0008177213733 0)
(-0.001675581964 0.0009650367738 0)
(-0.001973194988 0.001093861047 0)
(-0.002271567811 0.001196705751 0)
(-0.002558898666 0.001266478837 0)
(-0.002821753839 0.001297030885 0)
(-0.003045587515 0.001283609482 0)
(-0.003215403888 0.001223260025 0)
(-0.003316543125 0.001115178342 0)
(-0.00333555806 0.0009609840831 0)
(-0.003261114225 0.0007648964295 0)
(-0.00308498783 0.000533820858 0)
(-0.002802958266 0.0002770441729 0)
(-0.002415318716 5.616780768e-06 0)
(-0.001927747982 -0.0002684621297 0)
(-0.001350045597 -0.0005326900054 0)
(-0.000699151786 -0.0007748764704 0)
(5.790903191e-06 -0.0009856757354 0)
(0.0007455342541 -0.001159353561 0)
(0.001499298317 -0.001293497321 0)
(0.002248565085 -0.001389233258 0)
(0.002977247377 -0.001450513172 0)
(0.003672490203 -0.001483242074 0)
(0.004325320287 -0.001494375272 0)
(0.004930623313 -0.001491146047 0)
(0.005486946422 -0.001479568559 0)
(0.005994544076 -0.001462800024 0)
(0.006454072669 -0.00144175394 0)
(0.006865922089 -0.001415760874 0)
(0.007229681882 -0.00138310039 0)
(0.007543977324 -0.001341395194 0)
(0.007806209257 -0.001288199745 0)
(0.008012597924 -0.001222102659 0)
(0.008159043183 -0.001143848797 0)
(0.008242695729 -0.001056892115 0)
(0.008263523799 -0.0009669012763 0)
(0.008225179855 -0.0008805788558 0)
(0.008135030794 -0.0008043092977 0)
(0.00800406072 -0.0007431808102 0)
(0.007845797673 -0.0007003500088 0)
(0.007674931923 -0.0006765860534 0)
(0.007505669835 -0.0006701315793 0)
(0.007350445396 -0.0006770562587 0)
(0.007218802864 -0.0006919570729 0)
(0.007116621913 -0.0007088324808 0)
(0.007046168784 -0.0007218277015 0)
(0.007006324268 -0.0007257848071 0)
(0.006993097839 -0.0007165740292 0)
(0.00700030704 -0.0006911724455 0)
(0.007020239017 -0.0006475431417 0)
(0.007044222954 -0.0005844018813 0)
(0.007063068213 -0.0005009408455 0)
(0.007067384256 -0.0003965435313 0)
(0.007047618827 -0.0002705801353 0)
(0.006994248379 -0.0001223637818 0)
(0.006897769979 4.885416017e-05 0)
(0.006748550536 0.0002438695912 0)
(0.006536955857 0.0004632049808 0)
(0.00625352768 0.0007069997637 0)
(0.005889028096 0.000974711363 0)
(0.005434740086 0.001264905761 0)
(0.00488274663 0.001575094393 0)
(0.004226236414 0.001901649418 0)
(0.003459798686 0.002239802833 0)
(0.002579708138 0.00258373222 0)
(0.001584279666 0.002926809412 0)
(0.000473581461 0.003262165591 0)
(-0.0007506934989 0.003580480891 0)
(-0.002076276768 0.003868019906 0)
(-0.003490952101 0.004112362931 0)
(-0.004976733673 0.004301825279 0)
(-0.006511841786 0.004425311429 0)
(-0.008070900151 0.004472862705 0)
(-0.009625256868 0.004436161435 0)
(-0.01114381815 0.004309044535 0)
(-0.01259406448 0.004088000331 0)
(-0.0139432167 0.003772580696 0)
(-0.01515948465 0.003365689812 0)
(-0.0162133133 0.002873722308 0)
(-0.01707855443 0.002306543873 0)
(-0.01773347105 0.001677327082 0)
(-0.01816179921 0.001002295679 0)
(-0.01835332156 0.0003001901326 0)
(-0.01830366594 -0.0004079716211 0)
(-0.01801812678 -0.001098621642 0)
(-0.01750642935 -0.001750074569 0)
(-0.01678482398 -0.002345548399 0)
(-0.01587447925 -0.002871090289 0)
(-0.01480058394 -0.003315671581 0)
(-0.01359203925 -0.003671365622 0)
(-0.01228040254 -0.003933563365 0)
(-0.01089874865 -0.004101130068 0)
(-0.00948040512 -0.004176411753 0)
(-0.008057653957 -0.004165038631 0)
(-0.006660488523 -0.004075513296 0)
(-0.005315518929 -0.003918605564 0)
(-0.004045107242 -0.003706606174 0)
(-0.002866800308 -0.003452510458 0)
(-0.001793098828 -0.003169213122 0)