/*--------------------------------*- C++ -*----------------------------------*\
| =========                 |                                                 |
| \\      /  F ield         | OpenFOAM: The Open Source CFD Toolbox           |
|  \\    /   O peration     | Version:  5.x                                   |
|   \\  /    A nd           | Web:      www.OpenFOAM.org                      |
|    \\/     M anipulation  |                                                 |
\*---------------------------------------------------------------------------*/
FoamFile
{
    version     2.0;
    format      ascii;
    class       volVectorField;
    location    "0.4";
    object      Urom;
}
// * * * * * * * * * * * * * * * * * * * * * * * * * * * * * * * * * * * * * //

dimensions      [0 1 -1 0 0 0 0];

internalField   nonuniform List<vector> 
17720
(
(0.978827 0.0029621 0)
(0.916045 0.00310549 0)
(2.45273 0.0282466 0)
(0.850091 0.00337147 0)
(2.32251 0.0293519 0)
(3.61586 0.0647343 0)
(0.781938 0.00366299 0)
(2.18762 0.0304373 0)
(3.46602 0.066908 0)
(4.52693 0.102163 0)
(0.714828 0.00371369 0)
(2.05187 0.0305825 0)
(3.31085 0.0686473 0)
(4.3891 0.105524 0)
(5.23091 0.136057 0)
(0.652106 0.0034863 0)
(1.92209 0.0291102 0)
(3.15396 0.067861 0)
(4.24632 0.108806 0)
(5.11185 0.139139 0)
(5.7947 0.168971 0)
(0.596199 0.00313338 0)
(1.80399 0.0263781 0)
(3.0043 0.0636512 0)
(4.09634 0.107653 0)
(4.99553 0.144614 0)
(5.67901 0.168734 0)
(6.27952 0.204731 0)
(0.54877 0.00268756 0)
(1.7004 0.0229768 0)
(2.86971 0.0571409 0)
(3.94741 0.100526 0)
(4.87026 0.14572 0)
(5.57732 0.173919 0)
(6.15519 0.200485 0)
(6.69773 0.240304 0)
(0.510279 0.00222157 0)
(1.61269 0.0191547 0)
(2.75327 0.0496532 0)
(3.812 0.0893335 0)
(4.7358 0.137968 0)
(5.47663 0.177914 0)
(6.04492 0.201967 0)
(6.581 0.237589 0)
(7.02115 0.265253 0)
(0.479781 0.00181425 0)
(1.54116 0.0153308 0)
(2.65459 0.0414963 0)
(3.6972 0.0770631 0)
(4.60531 0.122533 0)
(5.36643 0.172308 0)
(5.94901 0.205358 0)
(6.45661 0.23516 0)
(6.94654 0.27284 0)
(7.24314 0.275049 0)
(0.457051 0.0011851 0)
(1.48485 0.0117288 0)
(2.57229 0.0332714 0)
(3.60257 0.0645606 0)
(4.49225 0.104242 0)
(5.25248 0.155696 0)
(5.8562 0.200856 0)
(6.3465 0.234014 0)
(6.83817 0.273563 0)
(7.22 0.293009 0)
(7.41045 0.278325 0)
(0.44371 0.000503681 0)
(1.44327 0.00795358 0)
(2.50528 0.0255508 0)
(3.52365 0.0525556 0)
(4.40089 0.0862302 0)
(5.14698 0.132874 0)
(5.76406 0.184253 0)
(6.25272 0.2267 0)
(6.71962 0.268562 0)
(7.16839 0.305594 0)
(7.4075 0.294814 0)
(7.59112 0.288585 0)
(0.439827 -0.000150846 0)
(1.41709 0.00401583 0)
(2.45305 0.0181366 0)
(3.45607 0.0416478 0)
(4.32763 0.0706413 0)
(5.05577 0.109055 0)
(5.67781 0.159983 0)
(6.16999 0.207751 0)
(6.6128 0.255546 0)
(7.08017 0.30581 0)
(7.41599 0.317059 0)
(7.56727 0.290234 0)
(7.81636 0.308775 0)
(0.442402 -0.000603673 0)
(1.40426 0.000711517 0)
(2.41529 0.0105969 0)
(3.39861 0.0311231 0)
(4.26498 0.0577616 0)
(4.97952 0.0888738 0)
(5.59689 0.133738 0)
(6.09865 0.181662 0)
(6.52092 0.231657 0)
(6.97273 0.290875 0)
(7.39566 0.331964 0)
(7.59343 0.307768 0)
(7.76531 0.295324 0)
(8.05509 0.324417 0)
(0.446609 -0.000735232 0)
(1.39933 -0.000960664 0)
(2.38924 0.0046759 0)
(3.35104 0.0205152 0)
(4.20916 0.0456133 0)
(4.91532 0.0735289 0)
(5.51918 0.110568 0)
(6.0353 0.155558 0)
(6.44401 0.201003 0)
(6.86329 0.262294 0)
(7.32674 0.327431 0)
(7.63313 0.334546 0)
(7.75999 0.294106 0)
(8.0181 0.312812 0)
(8.2518 0.316585 0)
(0.450376 -0.000651764 0)
(1.39524 -0.00119514 0)
(2.36971 0.00202721 0)
(3.31172 0.0122464 0)
(4.16059 0.0333069 0)
(4.8608 0.0594728 0)
(5.44764 0.0917975 0)
(5.97156 0.132984 0)
(6.38511 0.172047 0)
(6.76324 0.225346 0)
(7.2178 0.301564 0)
(7.6334 0.35072 0)
(7.80652 0.317 0)
(7.97444 0.295209 0)
(8.27752 0.326191 0)
(8.38594 0.282856 0)
(0.454794 -0.000901677 0)
(1.38857 -0.0007005 0)
(2.35065 0.00241594 0)
(3.27823 0.00831194 0)
(4.1184 0.0230873 0)
(4.8183 0.044865 0)
(5.38788 0.0735399 0)
(5.90644 0.112669 0)
(6.34126 0.149045 0)
(6.68778 0.187692 0)
(7.09573 0.259572 0)
(7.56761 0.341108 0)
(7.86129 0.349196 0)
(7.97474 0.298688 0)
(8.24193 0.313466 0)
(8.47589 0.314617 0)
(8.48968 0.244057 0)
(0.462254 -0.00110613 0)
(1.38044 -0.00141798 0)
(2.32797 0.00406578 0)
(3.24761 0.00926881 0)
(4.08168 0.0176116 0)
(4.7893 0.0323591 0)
(5.34823 0.0530273 0)
(5.84796 0.0895603 0)
(6.30493 0.129139 0)
(6.64983 0.156675 0)
(6.99553 0.209073 0)
(7.45443 0.301475 0)
(7.87009 0.36358 0)
(8.02922 0.326909 0)
(8.19433 0.299325 0)
(8.50438 0.328812 0)
(8.58931 0.275107 0)
(8.60076 0.223622 0)
(0.473963 -0.00172951 0)
(1.37486 -0.00270611 0)
(2.30052 0.00361694 0)
(3.21623 0.0120478 0)
(4.04909 0.0178181 0)
(4.77062 0.0259608 0)
(5.3358 0.0349063 0)
(5.80878 0.0602204 0)
(6.27205 0.103921 0)
(6.64621 0.133053 0)
(6.94675 0.161168 0)
(7.34402 0.23836 0)
(7.81637 0.338025 0)
(8.09943 0.355832 0)
(8.1995 0.303181 0)
(8.46684 0.318701 0)
(8.68919 0.315433 0)
(8.65657 0.228807 0)
(8.71391 0.222371 0)
(0.488506 -0.00179864 0)
(1.3749 -0.00462761 0)
(2.2712 0.00123795 0)
(3.1794 0.0131367 0)
(4.01844 0.020804 0)
(4.75509 0.0258254 0)
(5.34751 0.0259571 0)
(5.80279 0.0316319 0)
(6.24713 0.0674744 0)
(6.65905 0.107789 0)
(6.95707 0.124329 0)
(7.28203 0.168847 0)
(7.73556 0.269869 0)
(8.13792 0.34936 0)
(8.27799 0.32138 0)
(8.42868 0.296903 0)
(8.73034 0.331645 0)
(8.77667 0.266674 0)
(8.72749 0.197783 0)
(8.80541 0.224318 0)
(0.502371 -0.0015389 0)
(1.38029 -0.00501308 0)
(2.24517 -0.00220745 0)
(3.13403 0.0113489 0)
(3.98399 0.0242628 0)
(4.73572 0.0294026 0)
(5.3685 0.0271778 0)
(5.83428 0.0151811 0)
(6.24411 0.0271125 0)
(6.6723 0.0695236 0)
(7.00846 0.0947491 0)
(7.28565 0.111227 0)
(7.67794 0.181324 0)
(8.13568 0.288391 0)
(8.39314 0.322425 0)
(8.4664 0.28015 0)
(8.71539 0.306283 0)
(8.9109 0.306455 0)
(8.81709 0.202319 0)
(8.81371 0.181546 0)
(8.87557 0.216945 0)
(0.510645 -0.000914765 0)
(1.38644 -0.00362092 0)
(2.22645 -0.00419208 0)
(3.08402 0.00652342 0)
(3.93757 0.0254152 0)
(4.7077 0.0348731 0)
(5.37932 0.0350259 0)
(5.88955 0.0160672 0)
(6.27674 -0.000930794 0)
(6.68638 0.0222234 0)
(7.07054 0.0581251 0)
(7.34641 0.0686884 0)
(7.66958 0.10195 0)
(8.11868 0.192589 0)
(8.49441 0.275374 0)
(8.60036 0.262659 0)
(8.71666 0.252966 0)
(8.99434 0.303325 0)
(8.99309 0.233835 0)
(8.8717 0.145479 0)
(8.90645 0.165103 0)
(8.94288 0.196323 0)
(0.509646 0.000158108 0)
(1.38696 -9.65347e-05 0)
(2.21493 -0.00285572 0)
(3.03978 0.00190335 0)
(3.87883 0.0211087 0)
(4.66667 0.0393432 0)
(5.36748 0.0447153 0)
(5.94118 0.0305347 0)
(6.34316 -0.00537737 0)
(6.71696 -0.0162402 0)
(7.12251 0.0115938 0)
(7.4397 0.0296086 0)
(7.71361 0.0408144 0)
(8.11357 0.0987306 0)
(8.55769 0.188454 0)
(8.78211 0.220894 0)
(8.81316 0.192938 0)
(9.02441 0.239937 0)
(9.19054 0.254096 0)
(9.03015 0.135165 0)
(8.96225 0.100168 0)
(9.00371 0.136261 0)
(9.02142 0.162284 0)
(0.500557 0.000888018 0)
(1.37852 0.00343162 0)
(2.20771 0.00140206 0)
(3.01032 3.92209e-05 0)
(3.82143 0.0137564 0)
(4.61358 0.0370327 0)
(5.3338 0.0522601 0)
(5.96369 0.0492596 0)
(6.42126 0.0126066 0)
(6.77532 -0.0292747 0)
(7.1671 -0.0307434 0)
(7.53538 -0.0127129 0)
(7.80414 -0.00966595 0)
(8.13579 0.020811 0)
(8.58878 0.0956172 0)
(8.94254 0.152635 0)
(9.01219 0.132737 0)
(9.07905 0.137459 0)
(9.32551 0.214339 0)
(9.28361 0.148743 0)
(9.08524 0.0394024 0)
(9.08105 0.0563556 0)
(9.10852 0.0908462 0)
(9.11332 0.114937 0)
(0.488934 0.0014919 0)
(1.36539 0.00517838 0)
(2.20424 0.00519531 0)
(2.99886 0.000921522 0)
(3.784 0.00551791 0)
(4.56227 0.0265123 0)
(5.29016 0.0506484 0)
(5.95253 0.0629395 0)
(6.48169 0.0412702 0)
(6.85349 -0.0132139 0)
(7.21918 -0.0502404 0)
(7.6147 -0.0508817 0)
(7.92426 -0.0531543 0)
(8.19852 -0.0476 0)
(8.60777 0.0101909 0)
(9.04616 0.078118 0)
(9.24505 0.0765451 0)
(9.2331 0.0352935 0)
(9.39822 0.100553 0)
(9.54034 0.141643 0)
(9.31842 0.0109749 0)
(9.18629 -0.0396845 0)
(9.21378 0.0034866 0)
(9.22004 0.0297567 0)
(9.21487 0.0558195 0)
(0.481326 0.00182636 0)
(1.35836 0.00412047 0)
(2.20825 0.00579151 0)
(3.0063 0.00174263 0)
(3.77449 6.81466e-05 0)
(4.53434 0.0107793 0)
(5.2553 0.0349155 0)
(5.92614 0.0611119 0)
(6.51158 0.0642285 0)
(6.9321 0.020137 0)
(7.28413 -0.0387368 0)
(7.67897 -0.0702927 0)
(8.04404 -0.0845256 0)
(8.31077 -0.103285 0)
(8.64157 -0.0754612 0)
(9.09801 0.00098801 0)
(9.43877 0.0293435 0)
(9.47749 -0.0325069 0)
(9.49477 -0.0445918 0)
(9.70976 0.0580691 0)
(9.63311 0.00925806 0)
(9.36218 -0.121505 0)
(9.3257 -0.10618 0)
(9.3485 -0.0631645 0)
(9.3332 -0.0438306 0)
(9.31939 -0.0127746 0)
(0.483393 0.00141972 0)
(1.36873 0.000512205 0)
(2.22488 0.000554642 0)
(3.03348 -0.00127537 0)
(3.79245 -0.00528857 0)
(4.53863 -0.00228384 0)
(5.24798 0.0109949 0)
(5.90916 0.0380849 0)
(6.52305 0.0646572 0)
(7.00013 0.049439 0)
(7.35774 -0.00699423 0)
(7.73841 -0.0606121 0)
(8.14073 -0.0962134 0)
(8.45427 -0.134175 0)
(8.72278 -0.152384 0)
(9.12535 -0.0921976 0)
(9.562 -0.0224577 0)
(9.74175 -0.0602925 0)
(9.68708 -0.150952 0)
(9.80486 -0.0979637 0)
(9.92047 -0.0279422 0)
(9.64345 -0.157652 0)
(9.45718 -0.224604 0)
(9.47867 -0.172297 0)
(9.47526 -0.143193 0)
(9.44324 -0.124395 0)
(9.41622 -0.0906698 0)
(0.49647 0.000771659 0)
(1.40454 -0.00476789 0)
(2.25777 -0.00937213 0)
(3.07437 -0.00948719 0)
(3.8329 -0.0133163 0)
(4.56914 -0.0138752 0)
(5.27445 -0.00967199 0)
(5.91926 0.00474086 0)
(6.53457 0.0365318 0)
(7.06154 0.0533447 0)
(7.43978 0.0207947 0)
(7.80081 -0.0327912 0)
(8.21429 -0.0825558 0)
(8.58968 -0.135228 0)
(8.86085 -0.194375 0)
(9.17309 -0.191401 0)
(9.62005 -0.105731 0)
(9.95656 -0.077887 0)
(9.96541 -0.185261 0)
(9.925 -0.249459 0)
(10.0965 -0.148293 0)
(9.98277 -0.174331 0)
(9.65688 -0.31239 0)
(9.59831 -0.300582 0)
(9.62199 -0.247334 0)
(9.58664 -0.23259 0)
(9.54472 -0.207419 0)
(9.50032 -0.175767 0)
(0.515847 0.000360841 0)
(1.4637 -0.00883972 0)
(2.31232 -0.0213592 0)
(3.11668 -0.0219719 0)
(3.88034 -0.0218452 0)
(4.611 -0.0250007 0)
(5.32179 -0.0245656 0)
(5.96176 -0.0233853 0)
(6.5592 -0.00490498 0)
(7.1196 0.0256366 0)
(7.53573 0.0239381 0)
(7.87519 -0.0119096 0)
(8.27637 -0.0555252 0)
(8.69537 -0.111821 0)
(9.02115 -0.190828 0)
(9.28098 -0.254923 0)
(9.65196 -0.217332 0)
(10.0831 -0.130872 0)
(10.2551 -0.175815 0)
(10.1491 -0.322138 0)
(10.1963 -0.314348 0)
(10.2654 -0.237901 0)
(9.95166 -0.352679 0)
(9.7323 -0.425081 0)
(9.75121 -0.367626 0)
(9.74067 -0.333716 0)
(9.68044 -0.324032 0)
(9.62899 -0.291859 0)
(9.57942 -0.257804 0)
(0.534457 0.000528008 0)
(1.53326 -0.00985738 0)
(2.39219 -0.0304307 0)
(3.15883 -0.0385332 0)
(3.9122 -0.0311219 0)
(4.6429 -0.0303529 0)
(5.36339 -0.0328754 0)
(6.02088 -0.0389043 0)
(6.60298 -0.0395512 0)
(7.17184 -0.0171592 0)
(7.64122 -0.0014402 0)
(7.97392 -0.0165078 0)
(8.33919 -0.0406407 0)
(8.7743 -0.0790493 0)
(9.16346 -0.154836 0)
(9.43961 -0.257797 0)
(9.71911 -0.305941 0)
(10.1298 -0.23443 0)
(10.4702 -0.184239 0)
(10.4566 -0.311541 0)
(10.3355 -0.43737 0)
(10.429 -0.368606 0)
(10.2782 -0.384225 0)
(9.93559 -0.512258 0)
(9.86266 -0.502004 0)
(9.88358 -0.441393 0)
(9.82856 -0.427601 0)
(9.75473 -0.411545 0)
(9.69354 -0.374506 0)
(9.66552 -0.323375 0)
(0.5499 0.000639939 0)
(1.59858 -0.00836891 0)
(2.49128 -0.0323606 0)
(3.21881 -0.0546433 0)
(3.92265 -0.0480246 0)
(4.64529 -0.0325418 0)
(5.37193 -0.0299612 0)
(6.06377 -0.0383139 0)
(6.65583 -0.0545266 0)
(7.21551 -0.0527915 0)
(7.73676 -0.0378678 0)
(8.09982 -0.044609 0)
(8.41753 -0.0556436 0)
(8.83529 -0.063712 0)
(9.27208 -0.109769 0)
(9.60481 -0.212964 0)
(9.84906 -0.32561 0)
(10.1612 -0.340821 0)
(10.5658 -0.253384 0)
(10.7469 -0.276493 0)
(10.5837 -0.461391 0)
(10.5302 -0.512389 0)
(10.534 -0.456207 0)
(10.218 -0.557345 0)
(9.99556 -0.626448 0)
(10.0035 -0.567819 0)
(9.97883 -0.527764 0)
(9.88839 -0.521665 0)
(9.80713 -0.493823 0)
(9.75008 -0.447028 0)
(9.76463 -0.367953 0)
(0.566068 0.000630892 0)
(1.65616 -0.00747828 0)
(2.59429 -0.0286419 0)
(3.3136 -0.0619597 0)
(3.94213 -0.0721303 0)
(4.61903 -0.0467715 0)
(5.33696 -0.0231775 0)
(6.05854 -0.0211975 0)
(6.69109 -0.0434085 0)
(7.24706 -0.0651303 0)
(7.79834 -0.0640027 0)
(8.23148 -0.0731715 0)
(8.52649 -0.0937102 0)
(8.8899 -0.0847027 0)
(9.34443 -0.0842191 0)
(9.74321 -0.152266 0)
(10.0111 -0.280602 0)
(10.2431 -0.383301 0)
(10.5804 -0.357774 0)
(10.9165 -0.287972 0)
(10.8945 -0.406755 0)
(10.6795 -0.588428 0)
(10.6829 -0.568932 0)
(10.5115 -0.593967 0)
(10.1946 -0.711191 0)
(10.1131 -0.705858 0)
(10.1173 -0.642014 0)
(10.0348 -0.624322 0)
(9.92601 -0.610863 0)
(9.84466 -0.569972 0)
(9.81928 -0.501614 0)
(9.87791 -0.400281 0)
(0.588451 0.000193884 0)
(1.71506 -0.0091693 0)
(2.69116 -0.0264876 0)
(3.4371 -0.0596991 0)
(4.01038 -0.0913297 0)
(4.6007 -0.0794188 0)
(5.27642 -0.035076 0)
(5.99906 -0.00301729 0)
(6.68059 -0.00951635 0)
(7.25666 -0.0456331 0)
(7.81598 -0.0666315 0)
(8.32677 -0.0810145 0)
(8.6604 -0.120619 0)
(8.95761 -0.134131 0)
(9.38508 -0.101257 0)
(9.83692 -0.108459 0)
(10.1647 -0.206754 0)
(10.3757 -0.347499 0)
(10.6066 -0.421616 0)
(10.946 -0.361532 0)
(11.1399 -0.352579 0)
(10.9309 -0.55598 0)
(10.781 -0.669274 0)
(10.7391 -0.651572 0)
(10.452 -0.754045 0)
(10.2476 -0.824665 0)
(10.236 -0.774854 0)
(10.1861 -0.731627 0)
(10.0601 -0.723639 0)
(9.94965 -0.693804 0)
(9.8887 -0.635299 0)
(9.91762 -0.5385 0)
(10.0036 -0.435308 0)
(0.619053 -0.00031644 0)
(1.7866 -0.012601 0)
(2.7866 -0.0302826 0)
(3.56974 -0.0567264 0)
(4.13625 -0.0978823 0)
(4.63863 -0.116208 0)
(5.23065 -0.0779707 0)
(5.91487 -0.0141176 0)
(6.6194 0.0222205 0)
(7.23353 0.00150963 0)
(7.79254 -0.038757 0)
(8.35577 -0.0629698 0)
(8.7798 -0.110024 0)
(9.05431 -0.167935 0)
(9.40889 -0.155751 0)
(9.87782 -0.109088 0)
(10.2807 -0.14102 0)
(10.5224 -0.268266 0)
(10.6912 -0.403603 0)
(10.9256 -0.435107 0)
(11.2247 -0.365125 0)
(11.2127 -0.457595 0)
(10.9306 -0.685829 0)
(10.8748 -0.724855 0)
(10.7125 -0.777743 0)
(10.4351 -0.897865 0)
(10.3436 -0.906325 0)
(10.3229 -0.850147 0)
(10.2092 -0.832519 0)
(10.0671 -0.817444 0)
(9.97424 -0.767971 0)
(9.96268 -0.683677 0)
(10.0447 -0.566301 0)
(10.141 -0.479365 0)
(0.655846 -0.000667827 0)
(1.87436 -0.0161131 0)
(2.89225 -0.0380715 0)
(3.69883 -0.0605257 0)
(4.29476 -0.0963674 0)
(4.75369 -0.138433 0)
(5.24348 -0.135501 0)
(5.8492 -0.0693048 0)
(6.53284 0.0128478 0)
(7.18094 0.044949 0)
(7.74203 0.0149965 0)
(8.31616 -0.0207044 0)
(8.83745 -0.0639771 0)
(9.16418 -0.147427 0)
(9.44535 -0.199763 0)
(9.87034 -0.157007 0)
(10.336 -0.115077 0)
(10.6519 -0.184 0)
(10.8132 -0.329004 0)
(10.9541 -0.441754 0)
(11.1919 -0.426053 0)
(11.3825 -0.391885 0)
(11.1731 -0.592586 0)
(10.9698 -0.769099 0)
(10.9168 -0.801368 0)
(10.6655 -0.924174 0)
(10.4708 -1.00716 0)
(10.4305 -0.973784 0)
(10.3552 -0.937101 0)
(10.198 -0.933714 0)
(10.0713 -0.899132 0)
(10.0215 -0.826956 0)
(10.0744 -0.713824 0)
(10.1862 -0.594318 0)
(10.3002 -0.521381 0)
(0.695881 -0.00106325 0)
(1.97242 -0.0180801 0)
(3.01236 -0.0454001 0)
(3.82452 -0.070294 0)
(4.45116 -0.0976873 0)
(4.9224 -0.142238 0)
(5.34001 -0.178062 0)
(5.84123 -0.148822 0)
(6.45794 -0.0542016 0)
(7.11076 0.0392084 0)
(7.68782 0.0630959 0)
(8.23801 0.0363991 0)
(8.81217 0.00144575 0)
(9.24103 -0.0766495 0)
(9.50969 -0.180856 0)
(9.84601 -0.206964 0)
(10.3176 -0.142172 0)
(10.7306 -0.12634 0)
(10.9424 -0.235674 0)
(11.0428 -0.382878 0)
(11.1714 -0.458387 0)
(11.3939 -0.409652 0)
(11.4115 -0.465022 0)
(11.1247 -0.720491 0)
(11.0406 -0.825636 0)
(10.8968 -0.917242 0)
(10.6406 -1.05701 0)
(10.5251 -1.08508 0)
(10.4739 -1.0413 0)
(10.3352 -1.03255 0)
(10.1744 -1.02293 0)
(10.0933 -0.963843 0)
(10.1081 -0.865632 0)
(10.2118 -0.732806 0)
(10.3377 -0.62405 0)
(10.5079 -0.542483 0)
(0.736234 -0.00151149 0)
(2.07169 -0.0186201 0)
(3.13962 -0.0485327 0)
(3.94817 -0.0789955 0)
(4.58505 -0.103781 0)
(5.09316 -0.138887 0)
(5.50227 -0.19083 0)
(5.91472 -0.213771 0)
(6.43217 -0.155137 0)
(7.04317 -0.0361137 0)
(7.63499 0.0596575 0)
(8.16793 0.0817547 0)
(8.73 0.0657658 0)
(9.24943 0.0151343 0)
(9.57493 -0.0984688 0)
(9.84568 -0.197822 0)
(10.2478 -0.188818 0)
(10.7223 -0.119245 0)
(11.0439 -0.148785 0)
(11.1604 -0.291905 0)
(11.2244 -0.426282 0)
(11.3547 -0.456115 0)
(11.5196 -0.414036 0)
(11.3624 -0.583668 0)
(11.1399 -0.811304 0)
(11.0768 -0.898278 0)
(10.8441 -1.0509 0)
(10.6391 -1.15831 0)
(10.563 -1.14538 0)
(10.4628 -1.11839 0)
(10.2866 -1.12631 0)
(10.1678 -1.09257 0)
(10.154 -1.00928 0)
(10.2315 -0.887263 0)
(10.3629 -0.750281 0)
(10.5199 -0.648181 0)
(10.7913 -0.525737 0)
(0.774036 -0.00165054 0)
(2.16382 -0.0179953 0)
(3.26228 -0.0470497 0)
(4.06486 -0.0810668 0)
(4.6903 -0.108242 0)
(5.22341 -0.134886 0)
(5.67209 -0.181167 0)
(6.05584 -0.237891 0)
(6.47887 -0.242691 0)
(7.00933 -0.154575 0)
(7.58475 -0.0202044 0)
(8.11748 0.0754776 0)
(8.64622 0.106049 0)
(9.19643 0.0944856 0)
(9.6101 0.0130085 0)
(9.86926 -0.117876 0)
(10.1842 -0.190292 0)
(10.631 -0.14978 0)
(11.0626 -0.0984212 0)
(11.2742 -0.184491 0)
(11.3228 -0.347387 0)
(11.3732 -0.456757 0)
(11.5139 -0.446208 0)
(11.5707 -0.467459 0)
(11.3141 -0.714914 0)
(11.1873 -0.875626 0)
(11.0448 -1.00249 0)
(10.7883 -1.1716 0)
(10.6446 -1.22937 0)
(10.5648 -1.20415 0)
(10.4093 -1.20644 0)
(10.2489 -1.20643 0)
(10.2042 -1.14194 0)
(10.2578 -1.03768 0)
(10.3797 -0.901171 0)
(10.5381 -0.76943 0)
(10.7664 -0.651088 0)
(11.1318 -0.470904 0)
(0.807378 -0.00161516 0)
(2.24254 -0.0160381 0)
(3.37053 -0.0420891 0)
(4.16877 -0.0762695 0)
(4.76685 -0.105605 0)
(5.29636 -0.128002 0)
(5.78946 -0.1605 0)
(6.20873 -0.221506 0)
(6.58772 -0.278827 0)
(7.03064 -0.261922 0)
(7.55544 -0.150718 0)
(8.07745 -0.00860622 0)
(8.58539 0.0931911 0)
(9.1215 0.134751 0)
(9.60564 0.110435 0)
(9.90366 -0.00154392 0)
(10.1529 -0.122823 0)
(10.5189 -0.157693 0)
(10.9754 -0.0980481 0)
(11.3258 -0.088592 0)
(11.4328 -0.230359 0)
(11.4447 -0.396257 0)
(11.5065 -0.471916 0)
(11.6536 -0.447783 0)
(11.558 -0.576621 0)
(11.2989 -0.822309 0)
(11.1936 -0.944461 0)
(10.9626 -1.12053 0)
(10.743 -1.26228 0)
(10.6413 -1.28181 0)
(10.5261 -1.27431 0)
(10.3503 -1.29603 0)
(10.259 -1.26617 0)
(10.2894 -1.17499 0)
(10.3944 -1.05441 0)
(10.5537 -0.913789 0)
(10.7637 -0.781014 0)
(11.0719 -0.622476 0)
(11.4765 -0.397983 0)
(0.836402 -0.00160703 0)
(2.30503 -0.0135623 0)
(3.45716 -0.0345873 0)
(4.25857 -0.0663775 0)
(4.82257 -0.0971801 0)
(5.31828 -0.1166 0)
(5.82557 -0.134968 0)
(6.30615 -0.179409 0)
(6.70896 -0.255907 0)
(7.10032 -0.309215 0)
(7.56166 -0.271708 0)
(8.05348 -0.147443 0)
(8.53848 0.0036141 0)
(9.05379 0.117716 0)
(9.56738 0.15962 0)
(9.93915 0.106589 0)
(10.1571 -0.0184414 0)
(10.4364 -0.107115 0)
(10.836 -0.104706 0)
(11.2658 -0.0447366 0)
(11.5106 -0.0953344 0)
(11.5339 -0.279633 0)
(11.5387 -0.431772 0)
(11.649 -0.468723 0)
(11.7445 -0.486963 0)
(11.4946 -0.713607 0)
(11.2884 -0.897202 0)
(11.1267 -1.03217 0)
(10.8654 -1.22519 0)
(10.7071 -1.32141 0)
(10.6156 -1.33129 0)
(10.4657 -1.35761 0)
(10.3313 -1.37233 0)
(10.3257 -1.30652 0)
(10.4108 -1.19622 0)
(10.5615 -1.06304 0)
(10.7696 -0.922659 0)
(11.0405 -0.772411 0)
(11.397 -0.569943 0)
(11.8064 -0.326236 0)
(0.863214 -0.00181733 0)
(2.35249 -0.0116611 0)
(3.51869 -0.0264302 0)
(4.3324 -0.052571 0)
(4.8729 -0.0850576 0)
(5.3155 -0.105262 0)
(5.79191 -0.111092 0)
(6.31024 -0.12881 0)
(6.77827 -0.191164 0)
(7.17778 -0.280514 0)
(7.59581 -0.326025 0)
(8.05359 -0.276117 0)
(8.50375 -0.143092 0)
(8.99 0.0242524 0)
(9.51128 0.146666 0)
(9.9516 0.17082 0)
(10.202 0.0864328 0)
(10.3968 -0.0245521 0)
(10.7162 -0.0703101 0)
(11.1239 -0.0386399 0)
(11.4933 -0.000908935 0)
(11.6215 -0.119442 0)
(11.5917 -0.323655 0)
(11.6324 -0.443411 0)
(11.7955 -0.45587 0)
(11.7252 -0.580998 0)
(11.4048 -0.831093 0)
(11.2399 -0.956595 0)
(11.0044 -1.12941 0)
(10.7775 -1.29857 0)
(10.6723 -1.35884 0)
(10.5671 -1.39072 0)
(10.4235 -1.4407 0)
(10.3712 -1.42551 0)
(10.4305 -1.33185 0)
(10.5634 -1.20487 0)
(10.7697 -1.06365 0)
(11.0273 -0.92026 0)
(11.3404 -0.741903 0)
(11.7262 -0.506843 0)
(12.1203 -0.267395 0)
(0.889132 -0.00206174 0)
(2.38886 -0.0106845 0)
(3.55666 -0.019912 0)
(4.38501 -0.0375212 0)
(4.92749 -0.068299 0)
(5.32339 -0.0960529 0)
(5.73406 -0.0991822 0)
(6.23386 -0.089758 0)
(6.75791 -0.113118 0)
(7.21081 -0.194948 0)
(7.62502 -0.291349 0)
(8.06606 -0.330704 0)
(8.4907 -0.277855 0)
(8.92529 -0.129779 0)
(9.43675 0.0569029 0)
(9.92851 0.172343 0)
(10.2557 0.162508 0)
(10.4166 0.0622357 0)
(10.6367 -0.010374 0)
(10.9827 -0.0168774 0)
(11.3744 0.0310067 0)
(11.6524 0.0235782 0)
(11.6686 -0.157262 0)
(11.6333 -0.351831 0)
(11.7563 -0.420912 0)
(11.8622 -0.469819 0)
(11.5865 -0.707467 0)
(11.3127 -0.901774 0)
(11.1315 -1.02287 0)
(10.8672 -1.21544 0)
(10.7095 -1.33921 0)
(10.6318 -1.39166 0)
(10.5177 -1.45939 0)
(10.4281 -1.50458 0)
(10.4509 -1.45443 0)
(10.562 -1.34007 0)
(10.7592 -1.19792 0)
(11.0165 -1.05569 0)
(11.3042 -0.903304 0)
(11.6556 -0.694356 0)
(12.0557 -0.445433 0)
(12.4091 -0.229219 0)
(0.912681 -0.00212132 0)
(2.41705 -0.0097632 0)
(3.57624 -0.0158463 0)
(4.41348 -0.0250836 0)
(4.97935 -0.0482101 0)
(5.36378 -0.0829957 0)
(5.70643 -0.100093 0)
(6.13496 -0.0802408 0)
(6.66056 -0.0574679 0)
(7.17183 -0.0921134 0)
(7.61568 -0.189611 0)
(8.05834 -0.287334 0)
(8.49106 -0.329196 0)
(8.87746 -0.273487 0)
(9.33752 -0.0989195 0)
(9.86156 0.0982227 0)
(10.2769 0.186013 0)
(10.4823 0.138111 0)
(10.6114 0.0488167 0)
(10.8763 0.0242669 0)
(11.2288 0.0468646 0)
(11.5808 0.0935263 0)
(11.7399 0.0205201 0)
(11.6785 -0.199766 0)
(11.7012 -0.349256 0)
(11.8683 -0.383006 0)
(11.7633 -0.541153 0)
(11.4078 -0.810256 0)
(11.2132 -0.943558 0)
(10.9801 -1.10205 0)
(10.7535 -1.27486 0)
(10.6617 -1.36044 0)
(10.5894 -1.43279 0)
(10.4926 -1.52191 0)
(10.4699 -1.53839 0)
(10.5531 -1.45811 0)
(10.7365 -1.32484 0)
(10.9984 -1.17827 0)
(11.2789 -1.04081 0)
(11.5982 -0.87051 0)
(11.9878 -0.636766 0)
(12.3656 -0.399249 0)
(12.6835 -0.205738 0)
(0.930149 -0.00195507 0)
(2.43578 -0.0076303 0)
(3.58227 -0.0124688 0)
(4.42078 -0.0167404 0)
(5.01394 -0.0299084 0)
(5.42782 -0.0621642 0)
(5.74013 -0.0993456 0)
(6.08152 -0.0985948 0)
(6.54326 -0.0520518 0)
(7.07313 -0.0211751 0)
(7.56059 -0.0687671 0)
(8.01048 -0.17403 0)
(8.46982 -0.273322 0)
(8.8573 -0.325702 0)
(9.23816 -0.253705 0)
(9.74205 -0.0482309 0)
(10.2381 0.13866 0)
(10.5426 0.181953 0)
(10.6544 0.10835 0)
(10.807 0.0567381 0)
(11.1083 0.0741285 0)
(11.4499 0.114789 0)
(11.7319 0.135661 0)
(11.7677 -0.0101625 0)
(11.6912 -0.23168 0)
(11.8007 -0.309373 0)
(11.8539 -0.381617 0)
(11.5441 -0.643763 0)
(11.2639 -0.862368 0)
(11.0853 -0.99413 0)
(10.8313 -1.18001 0)
(10.6827 -1.30773 0)
(10.6288 -1.38034 0)
(10.5537 -1.48033 0)
(10.4934 -1.56155 0)
(10.5353 -1.54013 0)
(10.6991 -1.43323 0)
(10.9648 -1.29058 0)
(11.256 -1.15561 0)
(11.5545 -1.01764 0)
(11.92 -0.821813 0)
(12.3139 -0.583752 0)
(12.6493 -0.371278 0)
(12.9662 -0.179134 0)
(0.937909 -0.00150046 0)
(2.43958 -0.00392553 0)
(3.57589 -0.00710456 0)
(4.41071 -0.00978263 0)
(5.02479 -0.0161024 0)
(5.48519 -0.0382667 0)
(5.82339 -0.0832774 0)
(6.111 -0.118281 0)
(6.47534 -0.0926756 0)
(6.95973 -0.0202189 0)
(7.47281 0.0130028 0)
(7.939 -0.0445625 0)
(8.40431 -0.149364 0)
(8.83911 -0.258235 0)
(9.17593 -0.317237 0)
(9.59558 -0.210315 0)
(10.1236 0.014451 0)
(10.546 0.167174 0)
(10.7325 0.160472 0)
(10.8038 0.0865401 0)
(11.0095 0.0874861 0)
(11.3247 0.133343 0)
(11.6365 0.178203 0)
(11.8216 0.147685 0)
(11.76 -0.0584379 0)
(11.733 -0.230731 0)
(11.8489 -0.263804 0)
(11.6759 -0.442582 0)
(11.3344 -0.723582 0)
(11.1509 -0.893141 0)
(10.9369 -1.06675 0)
(10.726 -1.23913 0)
(10.649 -1.32588 0)
(10.6001 -1.40909 0)
(10.5276 -1.52174 0)
(10.5201 -1.57169 0)
(10.652 -1.51188 0)
(10.9138 -1.38733 0)
(11.2244 -1.25442 0)
(11.5237 -1.13446 0)
(11.8599 -0.980887 0)
(12.2519 -0.767015 0)
(12.6118 -0.546674 0)
(12.9235 -0.347075 0)
(13.2538 -0.141688 0)
(0.934205 -0.000920449 0)
(2.42229 0.00105 0)
(3.5532 0.00157217 0)
(4.38395 -0.000483564 0)
(5.01234 -0.00407228 0)
(5.51177 -0.0168804 0)
(5.91156 -0.0537893 0)
(6.20882 -0.112503 0)
(6.49807 -0.138442 0)
(6.88967 -0.0835947 0)
(7.37743 0.0102074 0)
(7.86463 0.0417162 0)
(8.32141 -0.0188738 0)
(8.78561 -0.122124 0)
(9.1542 -0.248994 0)
(9.47702 -0.294962 0)
(9.95437 -0.144419 0)
(10.4623 0.0761045 0)
(10.7801 0.175913 0)
(10.8707 0.128116 0)
(10.9566 0.0836692 0)
(11.2124 0.136379 0)
(11.5158 0.196691 0)
(11.7777 0.228005 0)
(11.8519 0.12874 0)
(11.7365 -0.102251 0)
(11.7796 -0.189837 0)
(11.7576 -0.266553 0)
(11.442 -0.530183 0)
(11.1967 -0.766817 0)
(11.0306 -0.940892 0)
(10.8027 -1.14273 0)
(10.6709 -1.27293 0)
(10.63 -1.34266 0)
(10.5695 -1.44505 0)
(10.5235 -1.54771 0)
(10.6096 -1.55428 0)
(10.8553 -1.46428 0)
(11.1795 -1.34043 0)
(11.4963 -1.22777 0)
(11.8154 -1.10779 0)
(12.1864 -0.9321 0)
(12.5639 -0.720577 0)
(12.8861 -0.519603 0)
(13.1962 -0.314352 0)
(13.5282 -0.0982771 0)
(0.918475 -0.000364417 0)
(2.38024 0.00641781 0)
(3.50728 0.013158 0)
(4.33901 0.013238 0)
(4.97626 0.0106752 0)
(5.50222 0.00253586 0)
(5.96095 -0.0209708 0)
(6.32089 -0.0780275 0)
(6.59759 -0.146671 0)
(6.90276 -0.156983 0)
(7.31316 -0.0728139 0)
(7.79242 0.0365416 0)
(8.25552 0.0652267 0)
(8.70802 0.0077674 0)
(9.13009 -0.102469 0)
(9.42759 -0.243328 0)
(9.7873 -0.250573 0)
(10.3031 -0.0658712 0)
(10.747 0.123666 0)
(10.9505 0.161834 0)
(10.9874 0.0956478 0)
(11.1227 0.104128 0)
(11.401 0.196081 0)
(11.6722 0.258992 0)
(11.8668 0.258237 0)
(11.8183 0.0840103 0)
(11.716 -0.109989 0)
(11.7611 -0.147994 0)
(11.5604 -0.328156 0)
(11.2656 -0.599675 0)
(11.0947 -0.802227 0)
(10.8949 -1.00972 0)
(10.7082 -1.19664 0)
(10.6457 -1.28751 0)
(10.609 -1.36654 0)
(10.5524 -1.48295 0)
(10.5885 -1.55415 0)
(10.8019 -1.51816 0)
(11.128 -1.41555 0)
(11.4635 -1.30597 0)
(11.782 -1.20434 0)
(12.1278 -1.0691 0)
(12.5051 -0.881572 0)
(12.847 -0.685828 0)
(13.1474 -0.491261 0)
(13.4597 -0.272845 0)
(13.7821 -0.0541678 0)
(0.890814 0.000310015 0)
(2.31297 0.0117106 0)
(3.43224 0.0259041 0)
(4.2725 0.0315743 0)
(4.91716 0.0301399 0)
(5.45938 0.0244539 0)
(5.95592 0.0103263 0)
(6.391 -0.0297556 0)
(6.71645 -0.108199 0)
(6.99034 -0.180715 0)
(7.31465 -0.17172 0)
(7.73632 -0.0608493 0)
(8.20248 0.0580659 0)
(8.64817 0.0858336 0)
(9.08009 0.0306518 0)
(9.42407 -0.0963719 0)
(9.68951 -0.23041 0)
(10.1139 -0.184175 0)
(10.6261 0.0108308 0)
(10.9756 0.147253 0)
(11.0767 0.127913 0)
(11.107 0.0740696 0)
(11.2953 0.144981 0)
(11.5617 0.258244 0)
(11.7928 0.316616 0)
(11.8849 0.258816 0)
(11.7367 0.0344385 0)
(11.7008 -0.0758995 0)
(11.6447 -0.156909 0)
(11.3669 -0.408922 0)
(11.1524 -0.647537 0)
(10.9789 -0.854141 0)
(10.7682 -1.07571 0)
(10.6547 -1.22059 0)
(10.6317 -1.29725 0)
(10.5956 -1.40217 0)
(10.5985 -1.51378 0)
(10.7647 -1.54053 0)
(11.0768 -1.47578 0)
(11.4243 -1.37604 0)
(11.7513 -1.27901 0)
(12.0784 -1.17324 0)
(12.4402 -1.02053 0)
(12.7989 -0.836948 0)
(13.1067 -0.656323 0)
(13.396 -0.456374 0)
(13.7086 -0.225332 0)
(14.0144 -0.0113932 0)
(0.851848 0.00106491 0)
(2.22261 0.0168568 0)
(3.32628 0.0382316 0)
(4.18031 0.0522898 0)
(4.83795 0.0543128 0)
(5.38984 0.0502101 0)
(5.90374 0.0416811 0)
(6.39343 0.0190847 0)
(6.7947 -0.0426575 0)
(7.09829 -0.13908 0)
(7.38137 -0.210332 0)
(7.72276 -0.180861 0)
(8.15306 -0.046755 0)
(8.60672 0.0768802 0)
(9.03376 0.104176 0)
(9.41281 0.0430294 0)
(9.67802 -0.100137 0)
(9.96706 -0.19974 0)
(10.4459 -0.104051 0)
(10.9127 0.0725577 0)
(11.1531 0.141857 0)
(11.1818 0.0821942 0)
(11.2415 0.0705547 0)
(11.4608 0.195686 0)
(11.6969 0.317867 0)
(11.8671 0.357747 0)
(11.8208 0.222005 0)
(11.665 0.0128841 0)
(11.6599 -0.0457018 0)
(11.4794 -0.219257 0)
(11.228 -0.477904 0)
(11.0493 -0.694566 0)
(10.8467 -0.919557 0)
(10.6779 -1.11941 0)
(10.6361 -1.22653 0)
(10.6315 -1.31842 0)
(10.6325 -1.44321 0)
(10.7513 -1.52521 0)
(11.0306 -1.5108 0)
(11.3783 -1.43447 0)
(11.7157 -1.34206 0)
(12.0351 -1.24906 0)
(12.3739 -1.12976 0)
(12.736 -0.968287 0)
(13.0637 -0.798219 0)
(13.3435 -0.625494 0)
(13.6319 -0.412795 0)
(13.9393 -0.175025 0)
(14.2258 0.0312596 0)
(0.802865 0.00168577 0)
(2.11258 0.0215027 0)
(3.19279 0.049236 0)
(4.06011 0.0723315 0)
(4.74155 0.0809552 0)
(5.3047 0.0787774 0)
(5.82188 0.0730579 0)
(6.33602 0.0630812 0)
(6.80312 0.0269443 0)
(7.16938 -0.0566238 0)
(7.46742 -0.1658 0)
(7.76288 -0.233323 0)
(8.12143 -0.18179 0)
(8.55945 -0.0289983 0)
(9.00143 0.0952649 0)
(9.39248 0.116662 0)
(9.69585 0.04093 0)
(9.91956 -0.101911 0)
(10.2695 -0.147418 0)
(10.7669 -0.0223049 0)
(11.1563 0.110352 0)
(11.2902 0.107814 0)
(11.2867 0.0355008 0)
(11.3928 0.0830222 0)
(11.6175 0.245185 0)
(11.8071 0.365703 0)
(11.8758 0.360562 0)
(11.7246 0.163202 0)
(11.637 0.0196633 0)
(11.5705 -0.0689097 0)
(11.3285 -0.301904 0)
(11.1189 -0.536387 0)
(10.9284 -0.754794 0)
(10.7314 -0.981944 0)
(10.6416 -1.14031 0)
(10.6509 -1.23536 0)
(10.6721 -1.35367 0)
(10.7607 -1.47121 0)
(10.995 -1.51154 0)
(11.3279 -1.47122 0)
(11.6703 -1.39411 0)
(11.9911 -1.30701 0)
(12.3098 -1.20861 0)
(12.6579 -1.07424 0)
(13.004 -0.915936 0)
(13.2951 -0.762155 0)
(13.5613 -0.587262 0)
(13.855 -0.360685 0)
(14.1477 -0.12488 0)
(14.4213 0.0774213 0)
(0.745849 0.00218875 0)
(1.98693 0.0253383 0)
(3.03865 0.0582274 0)
(3.9141 0.0894229 0)
(4.62944 0.106921 0)
(5.21472 0.108016 0)
(5.73308 0.10297 0)
(6.24516 0.099613 0)
(6.74856 0.0861933 0)
(7.17699 0.0334609 0)
(7.52087 -0.0678556 0)
(7.82414 -0.186166 0)
(8.1296 -0.247871 0)
(8.50737 -0.172651 0)
(8.95463 -0.00577508 0)
(9.37621 0.111588 0)
(9.70706 0.118155 0)
(9.94163 0.0281997 0)
(10.1762 -0.0902351 0)
(10.5876 -0.0781246 0)
(11.0624 0.0500832 0)
(11.3534 0.117932 0)
(11.4026 0.0527215 0)
(11.4086 -0.00327109 0)
(11.5619 0.10393 0)
(11.7634 0.281806 0)
(11.8824 0.383487 0)
(11.8393 0.313393 0)
(11.6709 0.106266 0)
(11.6199 0.0109547 0)
(11.4517 -0.146151 0)
(11.2076 -0.384259 0)
(11.0085 -0.600547 0)
(10.8081 -0.826035 0)
(10.6698 -1.02852 0)
(10.6624 -1.15158 0)
(10.7064 -1.25949 0)
(10.7853 -1.38718 0)
(10.9744 -1.47393 0)
(11.2783 -1.47765 0)
(11.6162 -1.42693 0)
(11.9395 -1.35211 0)
(12.2472 -1.26498 0)
(12.5717 -1.15321 0)
(12.9198 -1.00989 0)
(13.2346 -0.865179 0)
(13.4968 -0.723094 0)
(13.7675 -0.537675 0)
(14.0595 -0.304224 0)
(14.3349 -0.0741607 0)
(14.6041 0.129337 0)
(0.682438 0.00257277 0)
(1.84969 0.0283981 0)
(2.87187 0.065152 0)
(3.74956 0.102175 0)
(4.5018 0.129341 0)
(5.12618 0.136071 0)