/*--------------------------------*- C++ -*----------------------------------*\
| =========                 |                                                 |
| \\      /  F ield         | OpenFOAM: The Open Source CFD Toolbox           |
|  \\    /   O peration     | Version:  5.x                                   |
|   \\  /    A nd           | Web:      www.OpenFOAM.org                      |
|    \\/     M anipulation  |                                                 |
\*---------------------------------------------------------------------------*/
FoamFile
{
    version     2.0;
    format      ascii;
    class       volVectorField;
    location    "0.001";
    object      Urom;
}
// * * * * * * * * * * * * * * * * * * * * * * * * * * * * * * * * * * * * * //

dimensions      [0 1 -1 0 0 0 0];

internalField   nonuniform List<vector> 
12225
(
(9.83806 0.034477 0)
(9.54945 0.0499997 0)
(9.25573 0.0496566 0)
(8.95794 0.0493972 0)
(8.66744 0.0494347 0)
(8.3899 0.0488848 0)
(8.12667 0.0478118 0)
(7.87614 0.0466174 0)
(7.63906 0.0452425 0)
(7.41214 0.0440375 0)
(7.2006 0.0423663 0)
(6.99492 0.0414694 0)
(6.81086 0.0389346 0)
(6.62188 0.0394901 0)
(6.4701 0.0340636 0)
(6.2892 0.0398294 0)
(6.18062 0.0240111 0)
(5.99388 0.0454394 0)
(10.0169 0.0534442 0)
(10.081 0.0782951 0)
(10.1227 0.0766108 0)
(10.139 0.0769088 0)
(10.1405 0.07918 0)
(10.1338 0.0806874 0)
(10.1212 0.0814847 0)
(10.1033 0.0816493 0)
(10.0811 0.0820258 0)
(10.0547 0.0815895 0)
(10.0263 0.0819113 0)
(9.9947 0.0805622 0)
(9.96396 0.0810824 0)
(9.92938 0.0784636 0)
(9.90002 0.0794842 0)
(9.86289 0.0751149 0)
(9.83922 0.0752427 0)
(9.79603 0.0668346 0)
(10.0025 0.0338666 0)
(10.0366 0.0548099 0)
(10.0694 0.0537641 0)
(10.0909 0.0543108 0)
(10.1065 0.0575983 0)
(10.1216 0.0605004 0)
(10.1376 0.0623672 0)
(10.1538 0.0636154 0)
(10.1698 0.0646105 0)
(10.1851 0.0653012 0)
(10.2004 0.0657544 0)
(10.215 0.0658431 0)
(10.23 0.0656067 0)
(10.2445 0.0651288 0)
(10.2598 0.0639209 0)
(10.274 0.0626749 0)
(10.2898 0.059015 0)
(10.302 0.0548302 0)
(10.0019 0.02702 0)
(10.0275 0.0521507 0)
(10.0545 0.0563676 0)
(10.0728 0.0578726 0)
(10.085 0.0610707 0)
(10.0966 0.0639481 0)
(10.1094 0.0656806 0)
(10.1232 0.0664484 0)
(10.1375 0.0669122 0)
(10.1521 0.066892 0)
(10.1671 0.0667854 0)
(10.1827 0.0660705 0)
(10.1989 0.0653068 0)
(10.2157 0.0638586 0)
(10.2331 0.062217 0)
(10.2513 0.0597692 0)
(10.2696 0.0563176 0)
(10.288 0.0518214 0)
(10.0012 0.0218324 0)
(10.0214 0.0465867 0)
(10.0455 0.0524882 0)
(10.0635 0.0532757 0)
(10.0762 0.0551524 0)
(10.0876 0.0573344 0)
(10.1 0.0586542 0)
(10.1134 0.059047 0)
(10.1273 0.0589861 0)
(10.1414 0.0585527 0)
(10.1558 0.0578841 0)
(10.1708 0.0567952 0)
(10.1863 0.0553962 0)
(10.2025 0.0535222 0)
(10.2192 0.0511797 0)
(10.2366 0.0482404 0)
(10.2539 0.044459 0)
(10.2716 0.039896 0)
(10.0009 0.0175654 0)
(10.0167 0.0404615 0)
(10.0376 0.0477669 0)
(10.055 0.0490304 0)
(10.0678 0.0506014 0)
(10.0791 0.0526801 0)
(10.0912 0.054101 0)
(10.1042 0.0545327 0)
(10.1178 0.0543227 0)
(10.1316 0.053665 0)
(10.1458 0.0526609 0)
(10.1605 0.051241 0)
(10.1756 0.0493758 0)
(10.1915 0.0470612 0)
(10.2077 0.0441526 0)
(10.2245 0.0407583 0)
(10.2414 0.0365858 0)
(10.2585 0.0321383 0)
(10.0006 0.0142055 0)
(10.0131 0.0347339 0)
(10.031 0.0430913 0)
(10.0474 0.0451471 0)
(10.0602 0.0465298 0)
(10.0715 0.0482585 0)
(10.0833 0.0494473 0)
(10.096 0.0496406 0)
(10.1092 0.0490468 0)
(10.123 0.0479235 0)
(10.1368 0.0463718 0)
(10.1512 0.044397 0)
(10.1661 0.0419109 0)
(10.1816 0.0389733 0)
(10.1975 0.0353984 0)
(10.2139 0.0314048 0)
(10.2305 0.0266907 0)
(10.2473 0.0219495 0)
(10.0005 0.0115736 0)
(10.0104 0.0295731 0)
(10.0255 0.0383654 0)
(10.0407 0.0410959 0)
(10.0534 0.0423049 0)
(10.0648 0.0435328 0)
(10.0762 0.0443173 0)
(10.0885 0.0441902 0)
(10.1015 0.0432157 0)
(10.1149 0.041647 0)
(10.1285 0.0395876 0)
(10.1426 0.0370907 0)
(10.1572 0.0340432 0)
(10.1722 0.0305428 0)
(10.1877 0.0263813 0)
(10.2037 0.0218772 0)
(10.2198 0.0166644 0)
(10.2366 0.0115078 0)
(10.0004 0.00947335 0)
(10.0083 0.0249755 0)
(10.0212 0.0335994 0)
(10.035 0.0367714 0)
(10.0473 0.0378673 0)
(10.0585 0.0386115 0)
(10.0697 0.0389458 0)
(10.0816 0.0384742 0)
(10.0942 0.0371408 0)
(10.1073 0.0351491 0)
(10.1206 0.0325958 0)
(10.1343 0.0295704 0)
(10.1485 0.025954 0)
(10.1631 0.021869 0)
(10.1781 0.0171136 0)
(10.1937 0.0120233 0)
(10.2094 0.00619813 0)
(10.2258 0.000431599 0)
(10.0003 0.00775897 0)
(10.0067 0.0208923 0)
(10.0177 0.028904 0)
(10.0301 0.0322499 0)
(10.0419 0.0332621 0)
(10.0529 0.0335736 0)
(10.0638 0.0334276 0)
(10.0753 0.032556 0)
(10.0874 0.0308336 0)
(10.1001 0.0283966 0)
(10.113 0.0253271 0)
(10.1264 0.0217415 0)
(10.14 0.0175338 0)
(10.1542 0.0128492 0)
(10.1687 0.00746481 0)
(10.1838 0.00172961 0)
(10.199 -0.0047909 0)
(10.2149 -0.0112946 0)
(10.0002 0.00632328 0)
(10.0055 0.0172561 0)
(10.0148 0.024376 0)
(10.0259 0.027636 0)
(10.0371 0.0285288 0)
(10.0478 0.0284369 0)
(10.0583 0.0277864 0)
(10.0694 0.0264528 0)
(10.081 0.0242964 0)
(10.0932 0.0213874 0)
(10.1057 0.0177907 0)
(10.1185 0.0136377 0)
(10.1317 0.00884264 0)
(10.1453 0.00354288 0)
(10.1593 -0.00249155 0)
(10.1738 -0.00891002 0)
(10.1883 -0.0161728 0)
(10.2037 -0.0234987 0)
(10.0002 0.0051745 0)
(10.0047 0.0142281 0)
(10.0127 0.020375 0)
(10.0227 0.0233459 0)
(10.0332 0.0240577 0)
(10.0434 0.0236067 0)
(10.0537 0.0224822 0)
(10.0643 0.0206865 0)
(10.0755 0.0180943 0)
(10.0872 0.01474 0)
(10.0991 0.0106631 0)
(10.1115 0.00599854 0)
(10.1241 0.000656844 0)
(10.1372 -0.0052231 0)
(10.1504 -0.0118668 0)
(10.1643 -0.0189337 0)
(10.1782 -0.0269036 0)
(10.1929 -0.0350219 0)
(10.0002 0.00419022 0)
(10.0041 0.0115447 0)
(10.011 0.0166301 0)
(10.02 0.0191143 0)
(10.0297 0.0195429 0)
(10.0395 0.0187334 0)
(10.0493 0.0171496 0)
(10.0595 0.014877 0)
(10.0702 0.0118316 0)
(10.0813 0.00803462 0)
(10.0928 0.00349535 0)
(10.1045 -0.00167477 0)
(10.1166 -0.00755368 0)
(10.1289 -0.014002 0)
(10.1416 -0.0212398 0)
(10.1546 -0.0289472 0)
(10.1677 -0.0376068 0)
(10.1815 -0.0465014 0)
(10.0002 0.00319163 0)
(10.0034 0.00875863 0)
(10.0094 0.0125888 0)
(10.0173 0.0143568 0)
(10.0261 0.0143412 0)
(10.0354 0.013087 0)
(10.0447 0.0109821 0)
(10.0544 0.00816081 0)
(10.0644 0.00459099 0)
(10.0748 0.00028 0)
(10.0856 -0.00478731 0)
(10.0966 -0.010524 0)
(10.1078 -0.0169962 0)
(10.1193 -0.024073 0)
(10.131 -0.0319597 0)
(10.1431 -0.040371 0)
(10.1552 -0.0497668 0)
(10.1678 -0.0595002 0)
(10.0001 0.00217703 0)
(10.0029 0.00588918 0)
(10.0079 0.00830433 0)
(10.0149 0.0091374 0)
(10.0227 0.00848837 0)
(10.0311 0.00667698 0)
(10.0398 0.00398628 0)
(10.0488 0.000558242 0)
(10.0581 -0.00360521 0)
(10.0676 -0.00850032 0)
(10.0775 -0.0141528 0)
(10.0876 -0.0204946 0)
(10.0977 -0.0275863 0)
(10.1081 -0.0353175 0)
(10.1187 -0.0438679 0)
(10.1294 -0.0530036 0)
(10.1402 -0.0631239 0)
(10.1512 -0.0736887 0)
(10.0001 0.00114945 0)
(10.0024 0.00295459 0)
(10.0066 0.00382425 0)
(10.0126 0.00352643 0)
(10.0194 0.00205335 0)
(10.0269 -0.000439935 0)
(10.0347 -0.00378206 0)
(10.0428 -0.00786286 0)
(10.0511 -0.0126657 0)
(10.0597 -0.0181797 0)
(10.0684 -0.0244292 0)
(10.0772 -0.0313725 0)
(10.0862 -0.0390602 0)
(10.0952 -0.0474134 0)
(10.1041 -0.0565698 0)
(10.1132 -0.0663619 0)
(10.1221 -0.0770874 0)
(10.1312 -0.0883468 0)
(10.0001 0.000138746 0)
(10.002 3.1111e-05 0)
(10.0056 -0.000732022 0)
(10.0106 -0.0023225 0)
(10.0165 -0.00479257 0)
(10.0229 -0.00809232 0)
(10.0296 -0.0121463 0)
(10.0366 -0.0168929 0)
(10.0438 -0.0223188 0)
(10.0511 -0.0284151 0)
(10.0583 -0.0352026 0)
(10.0657 -0.0426647 0)
(10.073 -0.050834 0)
(10.0802 -0.0596687 0)
(10.0873 -0.0692505 0)
(10.0942 -0.0794789 0)
(10.101 -0.0905333 0)
(10.1077 -0.10217 0)
(10.0001 -0.000860197 0)
(10.0016 -0.00288139 0)
(10.0046 -0.00532397 0)
(10.0088 -0.00829557 0)
(10.0137 -0.0118521 0)
(10.019 -0.0160068 0)
(10.0247 -0.02076 0)
(10.0304 -0.0261067 0)
(10.0361 -0.0320505 0)
(10.0419 -0.0385962 0)
(10.0475 -0.0457579 0)
(10.053 -0.0535362 0)
(10.0584 -0.0619432 0)
(10.0634 -0.0709718 0)
(10.0683 -0.0806437 0)
(10.0729 -0.0909289 0)
(10.0771 -0.101873 0)
(10.081 -0.113399 0)
(10.0001 -0.00190201 0)
(10.0014 -0.00588679 0)
(10.0039 -0.0100119 0)
(10.0074 -0.0143163 0)
(10.0114 -0.018864 0)
(10.0159 -0.0237335 0)
(10.0202 -0.0289957 0)
(10.0246 -0.0347012 0)
(10.0287 -0.0408762 0)
(10.0328 -0.0475363 0)
(10.0365 -0.0546869 0)
(10.0399 -0.0623444 0)
(10.0431 -0.0705068 0)
(10.0458 -0.0791888 0)
(10.0482 -0.0883671 0)
(10.0501 -0.0980653 0)
(10.0515 -0.108224 0)
(10.0525 -0.118891 0)
(10.0001 -0.00284648 0)
(10.0014 -0.00856618 0)
(10.0038 -0.0140876 0)
(10.0072 -0.0193818 0)
(10.0109 -0.0245458 0)
(10.0146 -0.0297504 0)
(10.0182 -0.0351525 0)
(10.0214 -0.040849 0)
(10.0244 -0.0468771 0)
(10.0271 -0.0532545 0)
(10.0293 -0.0599876 0)
(10.0311 -0.0671025 0)
(10.0325 -0.0745959 0)
(10.0334 -0.0824945 0)
(10.0337 -0.0907537 0)
(10.0336 -0.0994183 0)
(10.0329 -0.108386 0)
(10.0317 -0.117764 0)
(10.0001 -0.00366231 0)
(10.0016 -0.0108347 0)
(10.0044 -0.0174014 0)
(10.0079 -0.0232674 0)
(10.0116 -0.0286211 0)
(10.0151 -0.0337866 0)
(10.0181 -0.0390262 0)
(10.0208 -0.0444606 0)
(10.023 -0.050114 0)
(10.0248 -0.0560008 0)
(10.0261 -0.0621373 0)
(10.0268 -0.0685633 0)
(10.027 -0.0752761 0)
(10.0267 -0.0823065 0)
(10.0257 -0.0896038 0)
(10.0243 -0.0972203 0)
(10.0223 -0.105042 0)
(10.0196 -0.113192 0)
(10.0001 -0.00454715 0)
(10.002 -0.0132275 0)
(10.0055 -0.0207027 0)
(10.0097 -0.026845 0)
(10.0137 -0.0320828 0)
(10.0171 -0.0369907 0)
(10.0199 -0.0419226 0)
(10.022 -0.0469759 0)
(10.0237 -0.0521425 0)
(10.0249 -0.0574401 0)
(10.0255 -0.0629063 0)
(10.0255 -0.0685938 0)
(10.0248 -0.0745027 0)
(10.0236 -0.0806588 0)
(10.0218 -0.0870123 0)
(10.0193 -0.0936123 0)
(10.0164 -0.10035 0)
(10.0128 -0.107343 0)
(10.0001 -0.00561788 0)
(10.0028 -0.0160005 0)
(10.0074 -0.0242331 0)
(10.0126 -0.0303142 0)
(10.0171 -0.0351703 0)
(10.0205 -0.0397003 0)
(10.023 -0.0442675 0)
(10.0248 -0.0488725 0)
(10.0263 -0.0534738 0)
(10.0271 -0.0581145 0)
(10.0271 -0.0628651 0)
(10.0266 -0.0677886 0)
(10.0254 -0.0728878 0)
(10.0235 -0.0781815 0)
(10.021 -0.0836235 0)
(10.0179 -0.0892567 0)
(10.0143 -0.0949881 0)
(10.01 -0.100923 0)
(10.0002 -0.00701445 0)
(10.0041 -0.0193547 0)
(10.0103 -0.0280337 0)
(10.0168 -0.033614 0)
(10.0218 -0.0378898 0)
(10.0251 -0.0420471 0)
(10.0274 -0.0462869 0)
(10.0292 -0.050452 0)
(10.0304 -0.0544892 0)
(10.031 -0.0584914 0)
(10.0307 -0.0625596 0)
(10.0298 -0.0667548 0)
(10.0282 -0.0710763 0)
(10.0258 -0.0755403 0)
(10.023 -0.0801083 0)
(10.0194 -0.0848194 0)
(10.0152 -0.0896009 0)
(10.0105 -0.0945471 0)
(10.0003 -0.00895188 0)
(10.0061 -0.0235463 0)
(10.0146 -0.0320908 0)
(10.0225 -0.0366002 0)
(10.0278 -0.0401069 0)
(10.031 -0.043878 0)
(10.0332 -0.0477849 0)
(10.0349 -0.0515182 0)
(10.0361 -0.0550572 0)
(10.0365 -0.0585513 0)
(10.036 -0.0621011 0)
(10.0348 -0.0657457 0)
(10.0329 -0.0694763 0)
(10.0302 -0.073305 0)
(10.027 -0.0772086 0)
(10.023 -0.0812205 0)
(10.0186 -0.0852779 0)
(10.0135 -0.0894479 0)
(10.0004 -0.0117296 0)
(10.0091 -0.0287865 0)
(10.0206 -0.0366316 0)
(10.0298 -0.0397541 0)
(10.0352 -0.042393 0)
(10.0382 -0.0455482 0)
(10.0404 -0.0487194 0)
(10.0424 -0.0515954 0)
(10.0436 -0.054278 0)
(10.0438 -0.0569651 0)
(10.0433 -0.0597406 0)
(10.042 -0.062618 0)
(10.0399 -0.0655762 0)
(10.0371 -0.0686253 0)
(10.0337 -0.071755 0)
(10.0296 -0.0749875 0)
(10.0249 -0.0782693 0)
(10.0196 -0.0816396 0)
(10.0008 -0.0153263 0)
(10.0136 -0.0344237 0)
(10.0285 -0.0412205 0)
(10.0386 -0.0439741 0)
(10.0435 -0.0471498 0)
(10.0463 -0.050701 0)
(10.0485 -0.0538226 0)
(10.0503 -0.0564341 0)
(10.0514 -0.0588155 0)
(10.0516 -0.06118 0)
(10.0509 -0.0635831 0)
(10.0494 -0.0660301 0)
(10.0473 -0.0685021 0)
(10.0444 -0.0710237 0)
(10.041 -0.0735808 0)
(10.0368 -0.0762117 0)
(10.0322 -0.0788719 0)
(10.0269 -0.081614 0)
(10.0012 -0.0201148 0)
(10.0199 -0.0370154 0)
(10.0391 -0.0382937 0)
(10.0509 -0.0386198 0)
(10.0572 -0.0411636 0)
(10.0616 -0.0441544 0)
(10.0658 -0.0466056 0)
(10.0696 -0.0486752 0)
(10.0723 -0.0506721 0)
(10.0741 -0.0527307 0)
(10.0749 -0.0548254 0)
(10.0748 -0.0569605 0)
(10.0738 -0.0590909 0)
(10.0721 -0.0612726 0)
(10.0697 -0.0634434 0)
(10.0663 -0.0656971 0)
(10.0625 -0.067946 0)
(10.0576 -0.0703247 0)
(10.0083 -0.036216 0)
(10.0497 -0.0577857 0)
(10.0816 -0.0575121 0)
(10.0986 -0.0573083 0)
(10.1068 -0.0592969 0)
(10.1109 -0.0613058 0)
(10.1121 -0.0627124 0)
(10.1103 -0.0638487 0)
(10.1054 -0.0649741 0)
(10.0977 -0.0661615 0)
(10.0874 -0.0673613 0)
(10.0747 -0.0685952 0)
(10.06 -0.0698094 0)
(10.0437 -0.0710788 0)
(10.0256 -0.072318 0)
(10.0062 -0.0736457 0)
(9.98506 -0.0749449 0)
(9.96348 -0.0763996 0)
(9.90859 -0.0247174 0)
(9.75019 -0.0389573 0)
(9.58481 -0.0398384 0)
(9.41217 -0.0401931 0)
(9.24052 -0.0411327 0)
(9.07439 -0.0417659 0)
(8.91448 -0.0419725 0)
(8.76013 -0.0419867 0)
(8.61068 -0.0419542 0)
(8.46593 -0.0419167 0)
(8.32559 -0.0418663 0)
(8.1898 -0.0418198 0)
(8.05806 -0.041766 0)
(7.93077 -0.0417377 0)
(7.80684 -0.041708 0)
(7.6875 -0.0417209 0)
(7.57046 -0.0417425 0)
(7.45876 -0.0418289 0)
(-0.198563 0.291322 -1.93669e-21)
(-0.510283 0.175135 1.95641e-21)
(-0.725128 0.066772 0)
(-0.739703 -0.0897139 0)
(-0.605599 -0.234051 0)
(-0.382848 -0.29707 -1.81649e-21)
(-0.136521 -0.299855 0)
(0.102411 -0.266254 0)
(0.304801 -0.225249 0)
(0.473473 -0.192106 0)
(0.619971 -0.171165 1.54604e-21)
(0.752754 -0.16068 0)
(0.880088 -0.156764 0)
(1.00721 -0.155053 0)
(1.13585 -0.151303 0)
(1.26642 -0.143971 1.24705e-21)
(1.39866 -0.130341 0)
(1.53237 -0.117965 0)
(1.6696 -0.115924 0)
(1.80795 -0.111261 0)
(1.92959 -0.086867 0)
(2.02494 -0.0551631 0)
(2.10056 -0.0726742 0)
(2.18238 -0.128417 1.55364e-22)
(2.27967 -0.134135 5.39467e-23)
(2.36714 -0.100139 -2.89046e-22)
(2.4257 -0.0616184 -5.46615e-22)
(2.471 -0.034192 0)
(2.50758 -0.00426251 0)
(2.54268 -0.0328328 1.43471e-21)
(2.62097 -0.146921 1.76454e-21)
(2.70804 -0.168539 0)
(2.80688 -0.136666 0)
(2.95682 -0.0972552 2.82527e-21)
(3.10466 -0.117156 0)
(3.29679 -0.171696 0)
(3.50548 -0.178461 -3.88655e-21)
(3.71007 -0.193412 0)
(3.90521 -0.20874 -4.38062e-21)
(4.09408 -0.148565 -9.10583e-21)
(4.25547 -0.0370422 0)
(4.38384 -0.0362539 0)
(4.52823 -0.026624 0)
(4.62089 0.0403346 0)
(4.60104 0.238547 0)
(4.34954 0.48671 -9.35143e-21)
(3.84551 0.582273 -9.20954e-21)
(3.15936 0.480333 -8.976e-21)
(2.42029 0.27112 0)
(1.747 0.0916858 8.49924e-21)
(1.20179 0.0756441 0)
(0.785384 0.259612 -7.97629e-21)
(0.382209 0.53444 -7.53473e-21)
(-0.138904 0.697756 0)
(-0.762497 0.528138 0)
(-1.13034 0.0631414 0)
(-1.07812 -0.405929 -5.41998e-21)
(-0.610929 -0.75765 0)
(0.311866 -0.984433 0)
(1.36328 -1.0281 0)
(2.48388 -0.735629 0)
(3.15926 -0.43187 0)
(3.6021 -0.0341117 0)
(3.29967 -0.143953 0)
(2.75778 -0.291447 0)
(1.80724 0.2193 1.17668e-21)
(0.297043 0.60722 0)
(-1.14859 0.765092 0)
(-2.60115 0.923717 -6.70467e-22)
(-3.99615 0.981718 6.62931e-22)
(-5.31825 0.943893 0)
(-6.50458 0.837124 -4.46057e-21)
(-7.52117 0.674478 6.58406e-21)
(-8.36047 0.526792 0)
(-9.07374 0.416458 -1.07184e-20)
(-9.63173 0.31717 0)
(-10.0572 0.232322 0)
(-10.3593 0.141432 1.62461e-20)
(-10.5261 0.107184 0)
(-10.6418 0.0873866 -1.93335e-20)
(-10.8065 -0.0356289 0)
(-10.9788 0.104044 2.1594e-20)
(-11.407 0.317935 2.22735e-20)
(-11.7168 0.21841 2.2788e-20)
(-11.7826 0.0986692 4.61166e-20)
(-11.7302 -0.0103132 -4.60182e-20)
(-11.5518 -0.0966677 0)
(-11.309 -0.18215 0)
(-10.9966 -0.260425 0)
(-10.6573 -0.259458 -4.15073e-20)
(-10.3352 -0.210446 -3.99298e-20)
(-10.0152 -0.161974 3.82472e-20)
(-9.70682 -0.123567 0)
(-9.43314 -0.0778027 -3.43896e-20)
(-9.22736 -0.0264788 -3.22423e-20)
(-9.07874 -0.00459106 -3.00994e-20)
(-8.94564 -0.0120967 0)
(-8.63663 -0.0859175 0)
(-8.21698 -0.215377 0)
(-7.71774 -0.327521 -2.20513e-20)
(-7.27753 -0.178686 0)
(-7.06937 -0.107892 0)
(-6.81132 -0.128089 1.53402e-20)
(-6.52028 -0.133794 0)
(-6.21147 -0.13839 0)
(-5.88821 -0.134428 1.00865e-20)
(-5.56995 -0.129348 0)
(-5.25619 -0.12171 0)
(-4.95543 -0.116095 -5.7267e-21)
(-4.66161 -0.11546 -4.38086e-21)
(-4.36721 -0.116074 0)
(-4.07149 -0.11848 1.76045e-21)
(-3.77812 -0.123932 0)
(-3.47833 -0.138105 7.39006e-22)
(-3.14955 -0.152002 0)
(-2.79589 -0.138831 3.02225e-21)
(-2.45835 -0.10419 4.08927e-21)
(-2.16421 -0.0767238 0)
(-1.88782 -0.0912505 0)
(-1.58011 -0.12046 0)
(-1.23352 -0.146117 0)
(-0.852353 -0.139275 0)
(-0.508106 -0.110209 0)
(-0.158407 -0.102786 0)
(0.189266 -0.0985869 1.025e-20)
(0.479655 -0.0920832 -1.0686e-20)
(0.708005 -0.0782297 0)
(0.863468 -0.0485033 0)
(0.971243 -0.0278555 0)
(1.08245 -0.0283934 0)
(1.20692 -0.0329386 -2.16959e-20)
(1.32972 -0.0324854 0)
(1.44654 -0.0303693 2.03833e-20)
(1.55729 -0.0281802 -1.96446e-20)
(1.66315 -0.0264097 0)
(1.76577 -0.0252013 0)
(1.86697 -0.0244135 0)
(1.9691 -0.0242032 1.70277e-20)
(2.07371 -0.0243803 1.66192e-20)
(2.18246 -0.0246789 0)
(2.29638 -0.025046 1.61576e-20)
(2.41529 -0.0253664 1.60769e-20)
(2.53789 -0.0254276 -1.60639e-20)
(2.66196 -0.025142 0)
(2.78454 -0.024667 0)
(2.90355 -0.0242107 -1.61482e-20)
(3.01723 -0.0239001 0)
(3.12623 -0.0237356 0)
(3.23163 -0.0240401 0)
(3.33352 -0.0249212 0)
(3.43276 -0.026217 1.58039e-20)
(3.53046 -0.0277311 1.56485e-20)
(3.62828 -0.0294068 0)
(3.72858 -0.0311512 1.53081e-20)
(3.83444 -0.0327853 0)
(3.9486 -0.034028 0)
(4.07325 -0.0347974 1.48392e-20)
(4.20917 -0.0350221 0)
(4.35589 -0.0351963 1.45217e-20)
(4.51312 -0.0361357 0)
(4.6809 -0.038818 0)
(4.86151 -0.0440167 1.37262e-20)
(5.05942 -0.0510797 0)
(5.27697 -0.0614156 1.28994e-20)
(5.52076 -0.0724939 0)
(5.78712 -0.0676216 0)
(6.03328 -0.0392636 0)
(6.1977 -0.00966757 -1.14258e-20)
(6.2717 0.0148049 0)
(6.24957 0.0947859 1.10373e-20)
(5.89651 0.258559 0)
(4.92744 0.401102 0)
(3.38108 0.395265 0)
(1.68417 0.196164 0)
(0.442173 -0.0845552 0)
(0.0258168 -0.217885 0)
(0.150306 -0.0876566 0)
(0.132827 0.0915597 -1.24992e-20)
(-0.104861 0.10642 0)
(-0.373338 -0.0160159 0)
(0.00442326 1.05105 5.985e-21)
(-0.0599897 0.813113 -6.0197e-21)
(-0.197453 0.448422 0)
(-0.133698 -0.135204 4.08333e-21)
(-0.0237713 -0.563499 0)
(0.181072 -0.763415 1.81549e-21)
(0.351742 -0.767482 -3.62931e-21)
(0.497572 -0.669855 -3.51376e-21)
(0.619067 -0.552633 0)
(0.726108 -0.456631 -3.32827e-21)
(0.833489 -0.395091 -1.54339e-21)
(0.950827 -0.364959 0)
(1.08049 -0.356337 0)
(1.21715 -0.355284 0)
(1.35775 -0.35288 0)
(1.4959 -0.356569 -1.24542e-21)
(1.63151 -0.371816 0)
(1.77367 -0.388645 2.40156e-21)
(1.92544 -0.385969 0)
(2.0893 -0.349586 0)
(2.25824 -0.298528 -1.70981e-21)
(2.42647 -0.253988 0)
(2.5725 -0.206319 1.0639e-21)
(2.66182 -0.17833 -1.5782e-22)
(2.70754 -0.171619 -5.1256e-23)
(2.7417 -0.143548 2.86131e-22)
(2.7534 -0.109495 5.43295e-22)
(2.75532 -0.104731 0)
(2.75678 -0.12409 0)
(2.75311 -0.161364 -1.43132e-21)
(2.7302 -0.14585 1.60925e-21)
(2.72159 -0.129663 0)
(2.78829 -0.269337 0)
(2.90437 -0.388594 -2.82645e-21)
(3.05282 -0.448876 0)
(3.23177 -0.49935 0)
(3.3595 -0.524467 3.88465e-21)
(3.49476 -0.465548 0)
(3.651 -0.425432 -4.29245e-21)
(3.89206 -0.460417 9.09673e-21)
(4.19617 -0.46891 0)
(4.49344 -0.45401 0)
(4.80807 -0.354773 1.81378e-20)
(5.09388 -0.179128 1.7823e-20)
(5.35076 0.0991651 1.74275e-20)
(5.54971 0.492741 -7.67331e-21)
(5.64895 0.960922 9.13791e-21)
(5.54986 1.41982 2.48338e-20)
(5.13402 1.74964 -1.56352e-20)
(4.30145 1.79505 -8.39464e-21)
(3.10075 1.44989 0)
(1.80554 0.957804 7.92306e-21)
(0.786342 0.782169 -6.86489e-21)
(0.222987 0.80821 0)
(-0.0884901 0.747507 0)
(-0.255845 0.414671 0)
(-0.298111 -0.205016 5.42161e-21)
(0.00709488 -1.12085 0)
(0.691946 -1.90644 -9.00066e-21)
(1.48655 -2.33168 0)
(2.18469 -1.91387 -3.26418e-21)
(2.34156 -1.28018 0)
(1.8505 -0.0952125 -3.79534e-22)
(0.647172 1.2513 0)
(-0.933106 2.11794 -2.84528e-23)
(-2.41 2.63405 -5.881e-22)
(-3.96612 2.72894 0)
(-5.26129 2.57227 5.27488e-23)
(-6.33584 2.32771 6.67384e-22)
(-7.11533 2.1072 -6.52004e-22)
(-7.76615 1.88741 0)
(-8.31634 1.64949 -6.94182e-21)
(-8.78867 1.38584 -6.54055e-21)
(-9.24268 1.16088 0)
(-9.64973 0.962095 1.06777e-20)
(-9.98059 0.729564 -2.64782e-20)
(-10.2252 0.513691 0)
(-10.3756 0.332217 -1.62291e-20)
(-10.4603 0.144609 0)
(-10.5268 0.157761 5.8976e-20)
(-10.8644 0.436341 0)
(-11.0779 0.520697 -6.59654e-20)
(-11.1331 0.387155 -2.23063e-20)
(-11.0492 0.136398 2.3898e-20)
(-10.9042 -0.0626681 4.78462e-20)
(-10.7639 -0.223185 -4.72702e-20)
(-10.6406 -0.322071 0)
(-10.5474 -0.372305 0)
(-10.449 -0.395609 0)
(-10.319 -0.406654 1.25164e-19)
(-10.1367 -0.423871 3.99888e-20)
(-9.88397 -0.441291 -3.8303e-20)
(-9.57554 -0.432768 0)
(-9.24499 -0.385062 -3.54211e-20)
(-8.90169 -0.328867 3.22731e-20)
(-8.56999 -0.304398 3.01257e-20)
(-8.16139 -0.415481 0)
(-7.63275 -0.621254 0)
(-7.2744 -0.621154 0)
(-7.05149 -0.482535 2.20655e-20)
(-6.73267 -0.390065 0)
(-6.49152 -0.357697 -3.49817e-20)
(-6.18987 -0.38095 -4.62453e-20)
(-5.89614 -0.40582 2.71113e-20)
(-5.58088 -0.429234 0)
(-5.26466 -0.434835 1.02882e-20)
(-4.94809 -0.427573 0)
(-4.63866 -0.410632 1.44411e-20)
(-4.33519 -0.392346 -5.93724e-21)
(-4.03881 -0.380656 -4.58206e-21)
(-3.74163 -0.374625 0)
(-3.44101 -0.370547 -5.46356e-21)
(-3.14274 -0.371834 1.12734e-21)
(-2.84605 -0.378383 -7.30629e-22)
(-2.54536 -0.39213 0)
(-2.22667 -0.413179 -3.02413e-21)
(-1.86597 -0.4069 -1.21361e-20)
(-1.44612 -0.382022 0)
(-1.03106 -0.379526 -1.19635e-20)
(-0.662026 -0.386599 -1.3672e-20)
(-0.363348 -0.395896 -1.5248e-20)
(-0.0657618 -0.408678 0)
(0.268538 -0.426592 0)
(0.631136 -0.421602 0)
(0.95166 -0.361338 1.03399e-20)
(1.18362 -0.276994 1.06682e-20)
(1.32813 -0.199504 0)
(1.43011 -0.147347 2.23967e-20)
(1.54963 -0.135074 2.23874e-20)
(1.69508 -0.142657 0)
(1.83513 -0.142679 2.16608e-20)
(1.9618 -0.13513 4.20913e-20)
(2.07833 -0.126736 -2.03559e-20)
(2.18722 -0.119629 -1.96269e-20)
(2.2898 -0.114471 0)
(2.38907 -0.111616 0)
(2.48835 -0.110817 0)
(2.59034 -0.112255 -1.70009e-20)
(2.69787 -0.115612 1.65362e-20)
(2.81329 -0.119967 3.2549e-20)
(2.93882 -0.124479 -1.61345e-20)
(3.0753 -0.128152 1.59755e-20)
(3.22208 -0.129761 1.60393e-20)
(3.37634 -0.128495 0)
(3.53426 -0.124411 0)
(3.69129 -0.118409 -1.60633e-20)
(3.84462 -0.111544 0)
(3.99222 -0.104247 0)
(4.1324 -0.0979554 3.2002e-20)
(4.26284 -0.0927001 0)
(4.38223 -0.0884378 1.57821e-20)
(4.49006 -0.0855482 -1.56194e-20)
(4.58769 -0.0848985 0)
(4.67917 -0.0873788 1.53006e-20)
(4.77114 -0.0934567 0)
(4.87213 -0.102698 0)
(4.98981 -0.113897 -1.48116e-20)
(5.12916 -0.125297 2.93017e-20)
(5.2922 -0.135505 -1.44929e-20)
(5.47721 -0.143967 0)
(5.6806 -0.151027 0)
(5.89682 -0.158311 1.36554e-20)
(6.1201 -0.166792 0)
(6.34633 -0.175664 1.28614e-20)
(6.56408 -0.184735 0)
(6.76763 -0.187525 0)
(6.9668 -0.166077 0)
(7.14663 -0.112819 1.14104e-20)
(7.2585 -0.0350335 0)
(7.33892 0.0965787 -1.10172e-20)
(7.40868 0.347309 0)
(7.33747 0.695225 0)
(7.0066 1.0028 1.86614e-20)
(6.33613 1.07917 -1.58698e-20)
(5.30611 0.834787 0)
(4.02495 0.391575 0)
(2.74099 0.050328 0)
(1.9472 -0.00167487 3.70383e-20)
(1.71941 0.0847227 0)
(1.38678 0.015841 -2.65394e-20)
(0.108505 0.572213 -5.71753e-23)
(0.187946 0.723084 8.02109e-21)
(0.323151 0.366204 0)
(0.557956 -0.297225 -8.05129e-21)
(0.721564 -0.791107 0)
(0.763449 -0.977776 0)
(0.740851 -0.91209 -1.26893e-22)
(0.705699 -0.750171 3.50729e-21)
(0.704921 -0.61678 3.59845e-21)
(0.768535 -0.565593 3.32328e-21)
(0.887169 -0.579989 0)
(1.03481 -0.618536 0)
(1.19142 -0.651182 -3.35296e-21)
(1.35045 -0.65792 -6.59065e-21)
(1.52101 -0.638064 6.45176e-21)
(1.69646 -0.626532 0)
(1.87274 -0.645782 6.05234e-21)
(2.05082 -0.673774 -2.39878e-21)
(2.21966 -0.69543 0)
(2.37214 -0.71475 5.05233e-21)
(2.51721 -0.701777 1.7076e-21)
(2.65351 -0.628462 -4.04074e-21)
(2.76233 -0.513344 -1.06316e-21)
(2.83523 -0.382256 0)
(2.85381 -0.27536 1.60515e-21)
(2.82784 -0.181781 5.12223e-22)
(2.7839 -0.0998446 0)
(2.7222 -0.0484412 -1.95232e-21)
(2.64165 -0.024792 0)
(2.53909 -0.0181032 -4.83671e-21)
(2.47674 -0.12541 -3.37624e-21)
(2.45386 -0.283234 0)
(2.41509 -0.404871 0)
(2.38062 -0.498624 0)
(2.36948 -0.63016 0)
(2.34494 -0.626377 0)
(2.31652 -0.565065 0)
(2.4288 -0.664369 -1.644e-20)
(2.61847 -0.773398 2.58472e-20)
(2.88689 -0.875676 0)
(3.22003 -0.942776 0)
(3.5861 -0.952248 0)
(3.9908 -0.858843 -7.59275e-22)
(4.40241 -0.659126 -1.78378e-20)
(4.80903 -0.337887 -3.35651e-20)
(5.19712 0.125633 3.23114e-20)
(5.54918 0.711239 1.45035e-20)
(5.81904 1.38471 -1.59416e-20)
(5.94316 2.09129 2.38979e-21)
(5.84585 2.73552 -1.27926e-20)
(5.42731 3.1742 0)
(4.62251 3.22192 -1.25767e-20)
(3.35198 2.78035 1.68482e-21)
(1.91589 1.96039 0)
(0.84708 1.17768 0)
(0.112981 0.40891 1.04027e-20)
(-0.342462 -0.726907 0)
(-0.423074 -2.08997 0)
(-0.426158 -3.02288 -1.10558e-20)
(-0.307281 -2.96639 -1.6497e-20)
(-0.639736 -1.52658 3.29712e-21)
(-1.54682 0.6744 0)
(-2.5532 2.04813 3.91799e-22)
(-3.53922 3.2028 0)
(-4.56418 3.83901 6.25856e-22)
(-5.37725 4.11991 -5.83409e-22)
(-6.09351 3.96709 -2.91668e-21)
(-6.61201 3.56937 -5.85628e-21)
(-6.99249 3.0754 0)
(-7.22755 2.67805 1.55704e-20)
(-7.45719 2.37989 0)
(-7.72058 2.14697 3.94769e-20)
(-8.03879 1.88635 3.494e-20)
(-8.43142 1.6414 4.19453e-20)
(-8.83018 1.3795 -4.90319e-20)
(-9.18916 1.0616 8.25615e-20)
(-9.52584 0.772335 0)
(-9.74523 0.442715 0)
(-9.97461 0.338463 -7.61372e-20)
(-10.3279 0.538538 -1.21913e-19)
(-10.5951 0.638038 0)
(-10.6318 0.50296 4.44187e-20)
(-10.5429 0.259695 0)
(-10.4301 0.0308901 -1.42984e-19)
(-10.357 -0.129558 2.1855e-21)
(-10.3071 -0.248244 -1.82184e-21)
(-10.2672 -0.338265 9.32957e-20)
(-10.2072 -0.430334 0)
(-10.0986 -0.525987 -8.78882e-20)
(-9.92388 -0.612855 1.22759e-21)
(-9.68271 -0.68794 0)
(-9.38649 -0.745397 0)
(-9.03304 -0.77171 0)
(-8.64609 -0.751292 6.9919e-20)
(-8.2153 -0.721192 0)
(-7.77051 -0.74839 0)
(-7.28343 -0.901925 0)
(-6.93726 -0.940699 0)
(-6.67649 -0.851549 0)
(-6.42889 -0.7512 4.39853e-20)
(-6.12214 -0.676514 0)
(-5.82632 -0.649797 3.50104e-20)
(-5.49842 -0.66343 3.09159e-20)
(-5.19965 -0.680663 -2.7129e-20)
(-4.90027 -0.694093 0)
(-4.62017 -0.689195 -2.03873e-20)
(-4.34253 -0.672166 0)
(-4.06986 -0.649253 -1.4451e-20)
(-3.79085 -0.628993 1.16763e-20)
(-3.50466 -0.617529 2.75715e-20)
(-3.20763 -0.615203 0)
(-2.89646 -0.615213 1.16345e-20)
(-2.57339 -0.621428 1.58979e-21)
(-2.23061 -0.633601 0)
(-1.86621 -0.652761 -7.02556e-21)
(-1.47507 -0.693082 -1.15343e-20)
(-1.06569 -0.724917 2.3882e-20)
(-0.59041 -0.733009 0)
(-0.107626 -0.704927 1.197e-20)
(0.306259 -0.632514 1.36611e-20)
(0.647142 -0.592912 4.6e-20)
(0.953793 -0.614323 0)
(1.26763 -0.646732 0)
(1.57054 -0.619115 0)
(1.81074 -0.50961 2.07922e-20)
(1.98922 -0.377693 0)
(2.11988 -0.27825 0)
(2.2466 -0.23183 -2.23455e-20)
(2.39319 -0.22804 -2.23424e-20)
(2.53399 -0.230427 0)
(2.64413 -0.218759 0)
(2.73697 -0.202292 -4.20256e-20)
(2.81726 -0.187205 0)
(2.88914 -0.175157 3.91847e-20)
(2.9549 -0.166752 3.76914e-20)
(3.01702 -0.162203 0)
(3.07824 -0.162062 0)
(3.14123 -0.16654 -3.38432e-20)
(3.20869 -0.175043 -8.41055e-23)
(3.28375 -0.186518 -1.00414e-22)
(3.36969 -0.199662 0)
(3.4693 -0.212484 -6.38704e-20)
(3.58399 -0.222418 0)
(3.71282 -0.227358 0)
(3.85288 -0.226552 0)
(4.00037 -0.220939 3.21495e-20)
(4.15203 -0.211829 0)
(4.30547 -0.200552 -6.40828e-20)
(4.45827 -0.188509 -3.19785e-20)
(4.60693 -0.175628 0)
(4.74723 -0.162207 -3.15304e-20)
(4.87497 -0.149416 0)
(4.98754 -0.139667 0)
(5.08551 -0.135964 -9.17187e-20)
(5.17341 -0.140665 6.04898e-20)
(5.2594 -0.154334 0)
(5.35337 -0.175243 5.91924e-20)
(5.46474 -0.200022 -2.92749e-20)
(5.60078 -0.225058 0)
(5.76548 -0.247706 0)
(5.95885 -0.266368 0)
(6.17661 -0.280663 -8.18577e-20)
(6.40903 -0.291027 0)
(6.64424 -0.295859 -2.57088e-20)
(6.87063 -0.293636 0)
(7.07389 -0.281582 0)
(7.24819 -0.245743 0)
(7.40484 -0.173383 0)
(7.5367 -0.0734317 0)
(7.62734 0.0646358 0)
(7.73276 0.298339 -4.03933e-20)
(7.8917 0.631675 0)
(8.08614 0.966954 -1.86261e-20)
(8.19487 1.17193 4.68083e-20)
(8.04373 1.16006 0)
(7.47321 0.971188 0)
(6.45903 0.745582 -2.35253e-20)
(5.26199 0.524631 -2.44398e-20)
(4.40789 0.366781 2.51369e-20)
(3.64101 0.162224 2.64327e-20)
(-0.0266489 0.409002 -1.18955e-20)
(0.168791 0.265761 -1.17836e-20)
(0.531414 -0.356673 -7.83929e-21)
(0.79797 -0.854818 -3.91023e-21)
(0.848484 -1.00299 0)
(0.740241 -0.876867 7.84551e-21)
(0.6223 -0.666875 -4.04108e-21)
(0.621199 -0.599134 0)
(0.728015 -0.698261 -3.59497e-21)
(0.885961 -0.834898 0)
(1.05783 -0.926809 7.56422e-21)
(1.22697 -0.971241 0)
(1.39024 -0.996702 3.34184e-21)
(1.55788 -1.01673 6.56762e-21)
(1.73843 -1.03126 -6.42871e-21)
(1.92679 -1.04295 0)
(2.10873 -1.04884 -6.03212e-21)
(2.27363 -1.03399 0)
(2.40709 -0.987803 0)
(2.5032 -0.913764 -5.0343e-21)
(2.54684 -0.813777 0)
(2.54573 -0.686958 -1.61235e-21)
(2.52858 -0.535186 0)
(2.49626 -0.355488 0)
(2.44362 -0.194528 1.48509e-21)
(2.35375 -0.0714699 -4.8819e-22)
(2.23287 0.0470327 -4.88901e-22)
(2.08298 0.163411 1.9737e-21)
(1.91359 0.217262 0)
(1.73468 0.170453 9.12836e-21)
(1.54119 0.0928934 0)
(1.32103 -0.00262341 7.77955e-21)
(1.09479 -0.123141 0)
(0.890548 -0.255077 0)
(0.689021 -0.334676 -1.26482e-20)
(0.545422 -0.400985 0)
(0.563605 -0.597451 1.51227e-20)
(0.707174 -0.866604 4.13594e-22)
(0.939253 -1.11803 -3.39053e-20)
(1.265 -1.34037 3.42036e-20)
(1.66223 -1.48989 0)
(2.11834 -1.55211 0)
(2.62792 -1.50471 1.54777e-20)
(3.17465 -1.33273 0)
(3.73629 -1.01043 1.61486e-20)
(4.29086 -0.52561 -1.53576e-20)
(4.82656 0.106781 -1.45475e-20)
(5.33041 0.871574 0)
(5.77531 1.74041 1.32318e-20)
(6.12582 2.64688 1.28038e-20)
(6.30327 3.47921 -1.88914e-20)
(6.23071 4.07993 1.25227e-20)
(5.78544 4.28152 1.24658e-20)
(4.8957 3.97185 0)
(3.71429 3.16779 0)
(2.42473 2.01401 -1.03384e-20)
(1.3272 0.611377 0)
(0.169186 -0.985775 0)
(-0.818041 -2.07322 2.01126e-20)
(-1.59389 -1.68755 1.65036e-20)
(-2.56195 -0.0517111 0)
(-3.45793 1.64184 0)
(-4.34645 3.10447 0)
(-5.05044 4.11694 0)
(-5.56992 4.59758 -5.8127e-22)
(-5.87475 4.64823 2.65317e-21)
(-6.06917 4.33718 2.91117e-21)
(-6.20858 3.8529 1.6169e-20)
(-6.36971 3.32494 0)
(-6.53789 2.93557 5.39114e-21)
(-6.77676 2.68145 0)
(-7.07789 2.50123 -2.81017e-20)
(-7.43044 2.30939 4.5603e-21)
(-7.85834 2.11768 -4.19225e-20)
(-8.30766 1.85448 4.90094e-20)
(-8.74055 1.50813 3.76082e-21)
(-9.13163 1.13406 0)
(-9.44956 0.797859 7.32187e-20)
(-9.8512 0.766686 7.61715e-20)