/*--------------------------------*- C++ -*----------------------------------*\
| =========                 |                                                 |
| \\      /  F ield         | OpenFOAM: The Open Source CFD Toolbox           |
|  \\    /   O peration     | Version:  5.x                                   |
|   \\  /    A nd           | Web:      www.OpenFOAM.org                      |
|    \\/     M anipulation  |                                                 |
\*---------------------------------------------------------------------------*/
FoamFile
{
    version     2.0;
    format      ascii;
    class       volVectorField;
    location    "0";
    object      Urom;
}
// * * * * * * * * * * * * * * * * * * * * * * * * * * * * * * * * * * * * * //

dimensions      [0 1 -1 0 0 0 0];

internalField   nonuniform List<vector> 
17530
(
(1.36914 -0.00640414 0)
(1.39759 -0.00583182 0)
(3.46777 -0.0145598 0)
(1.39083 -0.00473266 0)
(3.39161 0.00156395 0)
(4.92239 0.0104292 0)
(1.34947 -0.003649 0)
(3.21917 0.0187821 0)
(4.6677 0.0573452 0)
(5.74391 0.0807321 0)
(1.27478 -0.00229142 0)
(2.95912 0.0346836 0)
(4.27611 0.103728 0)
(5.29704 0.167337 0)
(6.03175 0.201633 0)
(1.16628 -0.000794862 0)
(2.62079 0.0500588 0)
(3.76925 0.144179 0)
(4.70409 0.248344 0)
(5.41802 0.329109 0)
(5.94692 0.370451 0)
(1.0246 0.000987929 0)
(2.20905 0.0652181 0)
(3.16599 0.180999 0)
(3.99658 0.315783 0)
(4.68174 0.442678 0)
(5.21133 0.531667 0)
(5.65499 0.580546 0)
(0.852092 0.00284011 0)
(1.73092 0.0794962 0)
(2.47333 0.216176 0)
(3.19086 0.376896 0)
(3.84462 0.537197 0)
(4.3936 0.672686 0)
(4.84564 0.764485 0)
(5.28314 0.822551 0)
(0.652912 0.00483188 0)
(1.19778 0.0919588 0)
(1.70305 0.24746 0)
(2.29026 0.434653 0)
(2.90325 0.624674 0)
(3.48038 0.796245 0)
(3.98101 0.929536 0)
(4.43555 1.02143 0)
(4.90606 1.08711 0)
(0.434077 0.00668489 0)
(0.626492 0.101883 0)
(0.87953 0.271734 0)
(1.31753 0.482538 0)
(1.86591 0.704391 0)
(2.44879 0.912441 0)
(3.01069 1.08544 0)
(3.52685 1.21191 0)
(4.03452 1.30124 0)
(4.55198 1.36824 0)
(0.204058 0.00813099 0)
(0.0388271 0.107945 0)
(0.0347989 0.286434 0)
(0.317463 0.513117 0)
(0.78393 0.761448 0)
(1.3318 1.00834 0)
(1.91673 1.22989 0)
(2.49494 1.40223 0)
(3.06823 1.52357 0)
(3.65237 1.60678 0)
(4.21743 1.66397 0)
(-0.0289523 0.0091252 0)
(-0.544697 0.109768 0)
(-0.800083 0.290746 0)
(-0.66688 0.52454 0)
(-0.275079 0.78676 0)
(0.221744 1.06045 0)
(0.773296 1.33065 0)
(1.36058 1.56715 0)
(1.97127 1.74579 0)
(2.61832 1.86783 0)
(3.27866 1.94144 0)
(3.88181 1.97685 0)
(-0.258633 0.00994921 0)
(-1.10718 0.108152 0)
(-1.6024 0.285029 0)
(-1.61024 0.519367 0)
(-1.27586 0.786076 0)
(-0.806698 1.06721 0)
(-0.298092 1.36143 0)
(0.243586 1.6557 0)
(0.823796 1.91423 0)
(1.47046 2.11227 0)
(2.18357 2.24267 0)
(2.89876 2.30534 0)
(3.52273 2.31103 0)
(-0.480984 0.0106648 0)
(-1.6351 0.104375 0)
(-2.35344 0.271835 0)
(-2.49848 0.499256 0)
(-2.21588 0.766068 0)
(-1.74771 1.0474 0)
(-1.24795 1.33935 0)
(-0.74306 1.6518 0)
(-0.223647 1.97051 0)
(0.348363 2.26088 0)
(1.01963 2.49154 0)
(1.76911 2.63965 0)
(2.50286 2.69349 0)
(3.12943 2.66913 0)
(-0.691092 0.0109946 0)
(-2.119 0.098727 0)
(-3.03671 0.253357 0)
(-3.31439 0.46731 0)
(-3.09423 0.727726 0)
(-2.62443 1.01089 0)
(-2.10673 1.29752 0)
(-1.60248 1.59759 0)
(-1.10866 1.92505 0)
(-0.605915 2.26842 0)
(-0.0348901 2.59727 0)
(0.63839 2.86949 0)
(1.37933 3.04424 0)
(2.09022 3.09639 0)
(2.70864 3.05136 0)
(-0.883033 0.0109404 0)
(-2.54846 0.0906314 0)
(-3.6402 0.230026 0)
(-4.03888 0.426499 0)
(-3.89141 0.671897 0)
(-3.44099 0.952838 0)
(-2.90799 1.24396 0)
(-2.39055 1.53538 0)
(-1.89097 1.84335 0)
(-1.40357 2.18261 0)
(-0.894412 2.54972 0)
(-0.31663 2.91655 0)
(0.334144 3.23191 0)
(1.01842 3.43859 0)
(1.6719 3.50228 0)
(2.27975 3.45365 0)
(-1.05304 0.0106166 0)
(-2.9134 0.0803269 0)
(-4.15201 0.201323 0)
(-4.66028 0.377651 0)
(-4.58273 0.60282 0)
(-4.17136 0.870084 0)
(-3.64518 1.16423 0)
(-3.12733 1.46355 0)
(-2.62834 1.76426 0)
(-2.13517 2.0813 0)
(-1.63806 2.43198 0)
(-1.09895 2.82039 0)
(-0.510079 3.21703 0)
(0.0998367 3.56784 0)
(0.692263 3.80675 0)
(1.27077 3.89915 0)
(1.86535 3.86812 0)
(-1.19989 0.0101854 0)
(-3.2096 0.0690525 0)
(-4.56177 0.168589 0)
(-5.17104 0.32069 0)
(-5.15944 0.523942 0)
(-4.78922 0.769449 0)
(-4.2855 1.052 0)
(-3.78545 1.35774 0)
(-3.31151 1.67101 0)
(-2.83604 1.98696 0)
(-2.34707 2.31668 0)
(-1.82212 2.68272 0)
(-1.24284 3.08856 0)
(-0.643839 3.50204 0)
(-0.0844606 3.87186 0)
(0.409464 4.13922 0)
(0.913775 4.27672 0)
(1.4862 4.28372 0)
(-1.32314 0.0096468 0)
(-3.4377 0.0576362 0)
(-4.86639 0.134709 0)
(-5.56465 0.257939 0)
(-5.62284 0.43633 0)
(-5.29325 0.65913 0)
(-4.81229 0.919465 0)
(-4.33294 1.21291 0)
(-3.8954 1.53316 0)
(-3.46659 1.86685 0)
(-3.01756 2.20366 0)
(-2.52784 2.55414 0)
(-1.96628 2.94192 0)
(-1.35176 3.36118 0)
(-0.752041 3.77734 0)
(-0.243595 4.14646 0)
(0.177339 4.43614 0)
(0.622286 4.62688 0)
(1.16096 4.68879 0)
(-1.42214 0.00891688 0)
(-3.59977 0.0462642 0)
(-5.06893 0.101841 0)
(-5.83853 0.193934 0)
(-5.9738 0.342145 0)
(-5.69292 0.541619 0)
(-5.23614 0.779492 0)
(-4.76969 1.04923 0)
(-4.36146 1.35325 0)
(-3.98195 1.69219 0)
(-3.59142 2.05007 0)
(-3.16854 2.41349 0)
(-2.67279 2.79577 0)
(-2.08055 3.21175 0)
(-1.44753 3.64153 0)
(-0.863983 4.04827 0)
(-0.396717 4.40271 0)
(-0.00490438 4.70663 0)
(0.404966 4.94642 0)
(0.907234 5.07405 0)
(-1.4955 0.00801323 0)
(-3.69771 0.0344146 0)
(-5.17494 0.0702699 0)
(-5.99423 0.132511 0)
(-6.2117 0.246303 0)
(-5.99382 0.418124 0)
(-5.5725 0.635073 0)
(-5.11677 0.88344 0)
(-4.72411 1.15956 0)
(-4.38418 1.47705 0)
(-4.04615 1.83729 0)
(-3.68631 2.22046 0)
(-3.28156 2.61635 0)
(-2.77716 3.04035 0)
(-2.17259 3.48921 0)
(-1.5469 3.92796 0)
(-0.996585 4.319 0)
(-0.550355 4.65561 0)
(-0.14841 4.96498 0)
(0.257317 5.23977 0)
(0.739094 5.43446 0)
(-1.54214 0.00688392 0)
(-3.73221 0.0222129 0)
(-5.19075 0.0390424 0)
(-6.03744 0.0743352 0)
(-6.33539 0.153459 0)
(-6.19631 0.292686 0)
(-5.82691 0.485271 0)
(-5.39317 0.716555 0)
(-5.00737 0.970933 0)
(-4.69476 1.25515 0)
(-4.40228 1.58956 0)
(-4.09184 1.97158 0)
(-3.75329 2.38019 0)
(-3.35219 2.81374 0)
(-2.84054 3.28423 0)
(-2.24848 3.76724 0)
(-1.66029 4.21486 0)
(-1.15017 4.59291 0)
(-0.70159 4.91824 0)
(-0.26762 5.22588 0)
(0.166822 5.51933 0)
(0.660716 5.77259 0)
(-1.56221 0.00566234 0)
(-3.70481 0.00992238 0)
(-5.12115 0.00815169 0)
(-5.97588 0.0184073 0)
(-6.34627 0.0652271 0)
(-6.29851 0.16999 0)
(-5.99721 0.333058 0)
(-5.60405 0.544046 0)
(-5.22859 0.784977 0)
(-4.93297 1.04452 0)
(-4.68061 1.34165 0)
(-4.41691 1.69559 0)
(-4.12384 2.09881 0)
(-3.79392 2.53373 0)
(-3.38148 3.00816 0)
(-2.86903 3.52297 0)
(-2.31447 4.03691 0)
(-1.7876 4.495 0)
(-1.31123 4.87238 0)
(-0.844766 5.19797 0)
(-0.370213 5.50165 0)
(0.120868 5.8026 0)
(0.662378 6.09845 0)
(-1.55661 0.00435833 0)
(-3.61904 -0.00197323 0)
(-4.97212 -0.0216169 0)
(-5.817 -0.0353755 0)
(-6.2487 -0.0188888 0)
(-6.29945 0.0520792 0)
(-6.08006 0.183407 0)
(-5.74501 0.367678 0)
(-5.39414 0.593471 0)
(-5.1093 0.839866 0)
(-4.8916 1.10859 0)
(-4.67726 1.42383 0)
(-4.42936 1.79889 0)
(-4.14467 2.22302 0)
(-3.80845 2.68669 0)
(-3.37651 3.20172 0)
(-2.87471 3.75252 0)
(-2.3761 4.29004 0)
(-1.91694 4.76314 0)
(-1.46209 5.15773 0)
(-0.973481 5.49568 0)
(-0.45292 5.80096 0)
(0.111282 6.10627 0)
(0.722402 6.42522 0)
(-1.5266 0.00296726 0)
(-3.47992 -0.013174 0)
(-4.75168 -0.0494567 0)
(-5.57076 -0.0855412 0)
(-6.04942 -0.0983305 0)
(-6.20012 -0.0608216 0)
(-6.07493 0.0387792 0)
(-5.80992 0.193356 0)
(-5.50278 0.396399 0)
(-5.23 0.631208 0)
(-5.0373 0.883317 0)
(-4.87348 1.16764 0)
(-4.68089 1.50507 0)
(-4.43937 1.90237 0)
(-4.15375 2.34829 0)
(-3.79703 2.84402 0)
(-3.3486 3.39482 0)
(-2.87235 3.96957 0)
(-2.43569 4.52255 0)
(-2.03164 5.01776 0)
(-1.58825 5.44618 0)
(-1.07797 5.80886 0)
(-0.505852 6.12783 0)
(0.134272 6.4407 0)
(0.817068 6.76534 0)
(-1.47361 0.00155166 0)
(-3.29354 -0.023605 0)
(-4.46938 -0.0746304 0)
(-5.25054 -0.130646 0)
(-5.76024 -0.170524 0)
(-6.00515 -0.166818 0)
(-5.9847 -0.100179 0)
(-5.79804 0.0250369 0)
(-5.54955 0.200185 0)
(-5.30071 0.417203 0)
(-5.12192 0.656511 0)
(-5.00151 0.919336 0)
(-4.87012 1.22497 0)
(-4.68704 1.58772 0)
(-4.44531 2.00812 0)
(-4.14814 2.47865 0)
(-3.76248 3.00849 0)
(-3.31125 3.58585 0)
(-2.87444 4.17267 0)
(-2.4921 4.73635 0)
(-2.11888 5.26105 0)
(-1.67824 5.73347 0)
(-1.14597 6.13449 0)
(-0.520005 6.48177 0)
(0.188621 6.80849 0)
(0.93332 7.12642 0)
(-1.39929 0.000122744 0)
(-3.06594 -0.0330963 0)
(-4.13509 -0.0968267 0)
(-4.87094 -0.170023 0)
(-5.39677 -0.2331 0)
(-5.72473 -0.261875 0)
(-5.81481 -0.230662 0)
(-5.71573 -0.135874 0)
(-5.53335 0.0108442 0)
(-5.32497 0.203735 0)
(-5.15624 0.427708 0)
(-5.06437 0.672111 0)
(-4.98954 0.952034 0)
(-4.874 1.28284 0)
(-4.69068 1.67312 0)
(-4.44425 2.1177 0)
(-4.1245 2.61793 0)
(-3.71373 3.17981 0)
(-3.27865 3.77269 0)
(-2.88802 4.36354 0)
(-2.54105 4.93846 0)
(-2.17174 5.49725 0)
(-1.72347 6.01736 0)
(-1.16689 6.46952 0)
(-0.490136 6.85928 0)
(0.276242 7.20547 0)
(1.07303 7.51214 0)
(-1.30578 -0.00125775 0)
(-2.80305 -0.0416644 0)
(-3.75685 -0.11607 0)
(-4.44486 -0.204125 0)
(-4.97559 -0.285783 0)
(-5.37116 -0.343014 0)
(-5.57154 -0.347918 0)
(-5.57084 -0.286706 0)
(-5.45987 -0.168708 0)
(-5.30552 -0.00256911 0)
(-5.1545 0.202206 0)
(-5.07437 0.428352 0)
(-5.04384 0.682939 0)
(-4.99137 0.984505 0)
(-4.87762 1.34311 0)
(-4.68779 1.7615 0)
(-4.43146 2.23302 0)
(-4.08378 2.768 0)
(-3.66573 3.35543 0)
(-3.26321 3.95483 0)
(-2.913 4.54736 0)
(-2.575 5.13791 0)
(-2.18719 5.73083 0)
(-1.7194 6.29885 0)
(-1.13401 6.81132 0)
(-0.412169 7.25441 0)
(0.401363 7.62453 0)
(1.24118 7.92372 0)
(-1.19521 -0.00253066 0)
(-2.51113 -0.0491531 0)
(-3.3417 -0.132533 0)
(-3.97944 -0.233755 0)
(-4.51119 -0.330537 0)
(-4.95672 -0.410257 0)
(-5.2597 -0.44868 0)
(-5.36653 -0.423642 0)
(-5.3343 -0.336614 0)
(-5.24288 -0.198377 0)
(-5.12672 -0.0155205 0)
(-5.05069 0.193723 0)
(-5.04613 0.423057 0)
(-5.04652 0.69366 0)
(-4.99883 1.01925 0)
(-4.87508 1.40718 0)
(-4.67607 1.85314 0)
(-4.4032 2.35652 0)
(-4.03514 2.92766 0)
(-3.63415 3.53251 0)
(-3.27096 4.13421 0)
(-2.94077 4.73188 0)
(-2.58472 5.34264 0)
(-2.16521 5.9667 0)
(-1.66479 6.58152 0)
(-1.04253 7.15817 0)
(-0.282591 7.66019 0)
(0.564689 8.05943 0)
(1.43601 8.35817 0)
(-1.06953 -0.00363464 0)
(-2.19532 -0.0556791 0)
(-2.89708 -0.146338 0)
(-3.47738 -0.25902 0)
(-4.01061 -0.369908 0)
(-4.49282 -0.466514 0)
(-4.88387 -0.533187 0)
(-5.10198 -0.543843 0)
(-5.15788 -0.490538 0)
(-5.13409 -0.382291 0)
(-5.07038 -0.224627 0)
(-5.00736 -0.0311106 0)
(-5.01127 0.178368 0)
(-5.05323 0.416764 0)
(-5.0619 0.70735 0)
(-5.00537 1.05897 0)
(-4.86476 1.47608 0)
(-4.65497 1.94965 0)
(-4.362 2.49003 0)
(-3.99329 3.09304 0)
(-3.62789 3.70912 0)
(-3.2957 4.31482 0)
(-2.95728 4.92505 0)
(-2.56565 5.55807 0)
(-2.10724 6.21056 0)
(-1.55946 6.87106 0)
(-0.890943 7.5102 0)
(-0.102676 8.07075 0)
(0.762342 8.50448 0)
(1.65899 8.81105 0)
(-0.93084 -0.00459397 0)
(-1.85967 -0.0614129 0)
(-2.42945 -0.157755 0)
(-2.94244 -0.279845 0)
(-3.47418 -0.405079 0)
(-3.98582 -0.515994 0)
(-4.44818 -0.604841 0)
(-4.77463 -0.647823 0)
(-4.92824 -0.628822 0)
(-4.97618 -0.552517 0)
(-4.97497 -0.424362 0)
(-4.94497 -0.249988 0)
(-4.95024 -0.0532082 0)
(-5.0177 0.158445 0)
(-5.07747 0.412506 0)
(-5.0819 0.725658 0)
(-5.00671 1.10594 0)
(-4.84951 1.55081 0)
(-4.62681 2.05444 0)
(-4.31884 2.63322 0)
(-3.97042 3.25978 0)
(-3.64284 3.88484 0)
(-3.32018 4.50179 0)
(-2.95216 5.13222 0)
(-2.51953 5.78824 0)
(-2.01326 6.47004 0)
(-1.4045 7.17505 0)
(-0.685915 7.8693 0)
(0.120961 8.48234 0)
(0.9959 8.95498 0)
(1.92083 9.27761 0)
(-0.781226 -0.00542638 0)
(-1.50805 -0.0663811 0)
(-1.94508 -0.167122 0)
(-2.38155 -0.296169 0)
(-2.90187 -0.434827 0)
(-3.43871 -0.561114 0)
(-3.95431 -0.668093 0)
(-4.38055 -0.73923 0)
(-4.63988 -0.752846 0)
(-4.76627 -0.708207 0)
(-4.83104 -0.612059 0)
(-4.853 -0.464212 0)
(-4.86917 -0.279656 0)
(-4.94336 -0.083696 0)
(-5.04569 0.136616 0)
(-5.10644 0.410754 0)
(-5.09879 0.749765 0)
(-5.00207 1.1606 0)
(-4.83409 1.63257 0)
(-4.59728 2.17078 0)
(-4.28719 2.78343 0)
(-3.96877 3.42534 0)
(-3.66363 4.06183 0)
(-3.32802 4.69959 0)
(-2.92429 5.35612 0)
(-2.44783 6.03817 0)
(-1.88064 6.75356 0)
(-1.20498 7.50033 0)
(-0.441434 8.23785 0)
(0.383422 8.89413 0)
(1.27676 9.40856 0)
(2.23097 9.75093 0)
(-0.6234 -0.00607164 0)
(-1.14353 -0.0702985 0)
(-1.45107 -0.174758 0)
(-1.80472 -0.308336 0)
(-2.29796 -0.457368 0)
(-2.85676 -0.600463 0)
(-3.40868 -0.724486 0)
(-3.91656 -0.821269 0)
(-4.28458 -0.86624 0)
(-4.49911 -0.851841 0)
(-4.63186 -0.786436 0)
(-4.71701 -0.670364 0)
(-4.76549 -0.505812 0)
(-4.83898 -0.318715 0)
(-4.96456 -0.121692 0)
(-5.07722 0.113991 0)
(-5.13178 0.411006 0)
(-5.10606 0.780015 0)
(-4.99382 1.22134 0)
(-4.82116 1.72258 0)
(-4.57305 2.2988 0)
(-4.27413 2.93718 0)
(-3.98002 3.59054 0)
(-3.67491 4.24465 0)
(-3.31381 4.91113 0)
(-2.87463 5.59878 0)
(-2.34513 6.31361 0)
(-1.7072 7.0669 0)
(-0.970122 7.85012 0)
(-0.16804 8.61865 0)
(0.687735 9.30999 0)
(1.61355 9.86418 0)
(2.59564 10.2233 0)
(-0.460665 -0.00652987 0)
(-0.769852 -0.0728907 0)
(-0.952229 -0.180494 0)
(-1.2224 -0.316953 0)
(-1.67318 -0.472468 0)
(-2.24455 -0.630984 0)
(-2.82601 -0.772587 0)
(-3.38937 -0.892681 0)
(-3.85828 -0.970028 0)
(-4.16914 -0.986702 0)
(-4.37263 -0.949864 0)
(-4.52409 -0.865581 0)
(-4.62566 -0.729571 0)
(-4.71079 -0.555009 0)
(-4.84074 -0.369443 0)
(-4.99307 -0.165136 0)
(-5.10345 0.0902061 0)
(-5.14633 0.413262 0)
(-5.10112 0.814859 0)
(-4.98463 1.28535 0)
(-4.80949 1.82088 0)
(-4.55728 2.43456 0)
(-4.27675 3.0919 0)
(-3.9926 3.7595 0)
(-3.67088 4.43882 0)
(-3.27898 5.13888 0)
(-2.79694 5.86315 0)
(-2.20261 6.61843 0)
(-1.49582 7.41117 0)
(-0.707617 8.22464 0)
(0.136601 9.01644 0)
(1.03999 9.73681 0)
(2.00844 10.3209 0)
(3.02955 10.6913 0)
(-0.295643 -0.00676867 0)
(-0.391942 -0.0742008 0)
(-0.451251 -0.184307 0)
(-0.641117 -0.322302 0)
(-1.04069 -0.481393 0)
(-1.60693 -0.651285 0)
(-2.21815 -0.810589 0)
(-2.81658 -0.950459 0)
(-3.36697 -1.05998 0)
(-3.77676 -1.11159 0)
(-4.05469 -1.10422 0)
(-4.26881 -1.04979 0)
(-4.43311 -0.946243 0)
(-4.55221 -0.793966 0)
(-4.68341 -0.61691 0)
(-4.85646 -0.431117 0)
(-5.01713 -0.212776 0)
(-5.11997 0.0651342 0)
(-5.14522 0.417826 0)
(-5.08641 0.851005 0)
(-4.97427 1.35028 0)
(-4.79532 1.92536 0)
(-4.54894 2.57212 0)
(-4.28635 3.24724 0)
(-3.99917 3.93734 0)
(-3.65151 4.64876 0)
(-3.21941 5.38573 0)
(-2.67976 6.15239 0)
(-2.01822 6.95351 0)
(-1.25345 7.78511 0)
(-0.41541 8.62468 0)
(0.483404 9.43639 0)
(1.44614 10.1781 0)
(2.47177 10.7785 0)
(3.55714 11.1534 0)
(-0.130124 -0.00688049 0)
(-0.0134246 -0.0745655 0)
(0.0494552 -0.185944 0)
(-0.0652262 -0.325086 0)
(-0.409281 -0.485478 0)
(-0.952538 -0.662102 0)
(-1.58733 -0.83791 0)
(-2.21537 -0.994946 0)
(-2.82231 -1.13118 0)
(-3.32733 -1.22076 0)
(-3.6858 -1.24709 0)
(-3.95822 -1.2221 0)
(-4.18243 -1.15141 0)
(-4.35065 -1.02979 0)
(-4.495 -0.868859 0)
(-4.67303 -0.693794 0)
(-4.87225 -0.502062 0)
(-5.03205 -0.264307 0)
(-5.12232 0.0396451 0)
(-5.12797 0.42385 0)
(-5.06635 0.884908 0)
(-4.95962 1.41549 0)
(-4.77684 2.03231 0)
(-4.54554 2.70721 0)
(-4.29512 3.40526 0)
(-3.99447 4.12748 0)
(-3.61062 4.87673 0)
(-3.12344 5.65469 0)
(-2.51877 6.4687 0)
(-1.79848 7.31827 0)
(-0.980138 8.18828 0)
(-0.0821643 9.05229 0)
(0.884295 9.88032 0)
(1.92009 10.6337 0)
(3.0277 11.2375 0)
(4.19618 11.6055 0)
(0.0346865 -0.00694725 0)
(0.363237 -0.0743007 0)
(0.548491 -0.185805 0)
(0.502125 -0.325689 0)
(0.214871 -0.485722 0)
(-0.290924 -0.665459 0)
(-0.933107 -0.854091 0)
(-1.59357 -1.02885 0)
(-2.23658 -1.18432 0)
(-2.82465 -1.30903 0)
(-3.27088 -1.37347 0)
(-3.60403 -1.3801 0)
(-3.88196 -1.34102 0)
(-4.10315 -1.25368 0)
(-4.27443 -1.11928 0)
(-4.45228 -0.958192 0)
(-4.66906 -0.785048 0)
(-4.88112 -0.580918 0)
(-5.03445 -0.31921 0)
(-5.10737 0.0143473 0)
(-5.0993 0.428816 0)
(-5.04511 0.91486 0)
(-4.93897 1.48222 0)
(-4.75812 2.13862 0)
(-4.54531 2.83975 0)
(-4.29581 3.56883 0)
(-3.96814 4.33144 0)
(-3.5343 5.12391 0)
(-2.98455 5.94828 0)
(-2.32052 6.8131 0)
(-1.5456 7.71263 0)
(-0.66425 8.62136 0)
(0.306881 9.50766 0)
(1.35552 10.3468 0)
(2.48694 11.1031 0)
(3.69597 11.6982 0)
(4.94996 12.0418 0)
(0.198334 -0.00696275 0)
(0.736255 -0.0737766 0)
(1.04416 -0.1845 0)
(1.06173 -0.324526 0)
(0.825752 -0.483075 0)
(0.367842 -0.662799 0)
(-0.258884 -0.859747 0)
(-0.948758 -1.0527 0)
(-1.62166 -1.22483 0)
(-2.27003 -1.37613 0)
(-2.8091 -1.47962 0)
(-3.2106 -1.5212 0)
(-3.53974 -1.51357 0)
(-3.81499 -1.45992 0)
(-4.02431 -1.3574 0)
(-4.20693 -1.21845 0)
(-4.421 -1.06306 0)
(-4.66464 -0.888539 0)
(-4.87953 -0.666395 0)
(-5.02035 -0.376699 0)
(-5.07617 -0.0116016 0)
(-5.06776 0.429724 0)
(-5.02589 0.94277 0)
(-4.91672 1.55258 0)
(-4.74616 2.24362 0)
(-4.54433 2.97333 0)
(-4.27757 3.74142 0)
(-3.90576 4.55058 0)
(-3.41423 5.3921 0)
(-2.80813 6.26795 0)
(-2.08889 7.18674 0)
(-1.24785 8.13792 0)
(-0.288801 9.08391 0)
(0.769077 9.98911 0)
(1.92084 10.8351 0)
(3.16704 11.5871 0)
(4.48061 12.159 0)
(5.78036 12.4458 0)
(0.360206 -0.00692842 0)
(1.10519 -0.0729891 0)
(1.53457 -0.182759 0)
(1.61566 -0.322097 0)
(1.42137 -0.478887 0)
(1.01352 -0.655681 0)
(0.423928 -0.855691 0)
(-0.276857 -1.06469 0)
(-0.983299 -1.2564 0)
(-1.66904 -1.42692 0)
(-2.29423 -1.56526 0)
(-2.77675 -1.64368 0)
(-3.15819 -1.66855 0)
(-3.48569 -1.64826 0)
(-3.74454 -1.57849 0)
(-3.94604 -1.46567 0)
(-4.15118 -1.33014 0)
(-4.39763 -1.1821 0)
(-4.65598 -1.0017 0)
(-4.86365 -0.75674 0)
(-4.98846 -0.436452 0)
(-5.03651 -0.0405476 0)
(-5.04407 0.425377 0)
(-5.01223 0.973702 0)
(-4.90167 1.62781 0)
(-4.74218 2.34963 0)
(-4.53271 3.11339 0)
(-4.22756 3.92718 0)
(-3.80057 4.78819 0)
(-3.25615 5.68337 0)
(-2.59888 6.61495 0)
(-1.81284 7.59213 0)
(-0.88788 8.59492 0)
(0.162537 9.57469 0)
(1.32633 10.4965 0)
(2.60016 11.3473 0)
(3.96649 12.0855 0)
(5.3438 12.6017 0)
(6.63256 12.8033 0)
(0.518841 -0.00680784 0)
(1.46895 -0.07184 0)
(2.01971 -0.180567 0)
(2.16434 -0.318968 0)
(2.00412 -0.474515 0)
(1.64011 -0.646481 0)
(1.10021 -0.844071 0)
(0.416525 -1.06295 0)
(-0.318447 -1.27686 0)
(-1.03411 -1.4668 0)
(-1.72064 -1.63262 0)
(-2.29534 -1.74882 0)
(-2.73772 -1.80596 0)
(-3.11296 -1.81868 0)
(-3.42698 -1.7838 0)
(-3.6653 -1.69879 0)
(-3.87274 -1.58278 0)
(-4.10738 -1.4556 0)
(-4.37869 -1.31317 0)
(-4.63943 -1.1216 0)
(-4.8315 -0.850145 0)
(-4.94457 -0.499061 0)
(-5.00277 -0.0751456 0)
(-5.03663 0.418429 0)
(-5.00738 1.01247 0)
(-4.89744 1.70798 0)
(-4.73681 2.461 0)
(-4.49728 3.26585 0)
(-4.13991 4.13149 0)
(-3.66001 5.04818 0)
(-3.06778 6.00004 0)
(-2.34693 6.99291 0)
(-1.47387 8.03179 0)
(-0.451194 9.08376 0)
(0.708175 10.0948 0)
(1.99698 11.0334 0)
(3.40175 11.8848 0)
(4.85001 12.5785 0)
(6.23009 13.0053 0)
(7.48654 13.1169 0)
(0.672725 -0.00656154 0)
(1.82471 -0.0701193 0)
(2.49878 -0.177434 0)
(2.70816 -0.315321 0)
(2.5785 -0.470239 0)
(2.24684 -0.63801 0)
(1.75915 -0.828709 0)
(1.11598 -1.04904 0)
(0.374172 -1.28142 0)
(-0.372181 -1.49581 0)
(-1.09602 -1.6848 0)
(-1.75557 -1.83739 0)
(-2.27454 -1.92884 0)
(-2.69716 -1.97152 0)
(-3.06361 -1.97244 0)
(-3.35355 -1.92062 0)
(-3.58061 -1.82496 0)
(-3.80766 -1.71246 0)
(-4.07242 -1.59511 0)
(-4.36051 -1.45418 0)
(-4.61152 -1.24495 0)
(-4.7874 -0.9456 0)
(-4.90266 -0.565932 0)
(-4.98997 -0.116453 0)
(-5.04585 0.414358 0)
(-5.01056 1.06032 0)
(-4.89692 1.79348 0)
(-4.71577 2.58271 0)
(-4.43064 3.43658 0)
(-4.02055 4.35948 0)
(-3.49383 5.33368 0)
(-2.84193 6.34711 0)
(-2.03338 7.40677 0)
(-1.05771 8.50712 0)
(0.0781767 9.60638 0)
(1.36595 10.6485 0)
(2.79205 11.6019 0)
(4.29441 12.426 0)
(5.76248 13.0403 0)
(7.11651 13.367 0)
(8.33936 13.3922 0)
(0.820389 -0.00625566 0)
(2.1699 -0.0675992 0)
(2.96786 -0.172983 0)
(3.24615 -0.3103 0)
(3.14867 -0.465274 0)
(2.83744 -0.63143 0)
(2.39522 -0.813988 0)
(1.8065 -1.02794 0)
(1.08504 -1.26925 0)
(0.317284 -1.50864 0)
(-0.434552 -1.72319 0)
(-1.15396 -1.90807 0)
(-1.76145 -2.03885 0)
(-2.23873 -2.11048 0)
(-2.65063 -2.14314 0)
(-2.99826 -2.12946 0)
(-3.26479 -2.06123 0)
(-3.49604 -1.96178 0)
(-3.74997 -1.8574 0)
(-4.04298 -1.74888 0)
(-4.33871 -1.60217 0)
(-4.57332 -1.36927 0)
(-4.74354 -1.04351 0)
(-4.87983 -0.639143 0)
(-5.00339 -0.162589 0)
(-5.06338 0.417841 0)
(-5.01509 1.11546 0)
(-4.88727 1.88641 0)
(-4.67084 2.72022 0)
(-4.33575 3.631 0)
(-3.87844 4.61399 0)
(-3.29718 5.6497 0)
(-2.55924 6.73224 0)
(-1.64366 7.86045 0)
(-0.549729 9.02068 0)
(0.720532 10.1666 0)
(2.15156 11.2366 0)
(3.68595 12.1794 0)
(5.22427 12.9426 0)
(6.67784 13.4635 0)
(7.9985 13.6897 0)
(9.18763 13.6339 0)
(0.960339 -0.00587377 0)
(2.50219 -0.0644552 0)
(3.42331 -0.167133 0)
(3.77474 -0.302822 0)
(3.71362 -0.458211 0)
(3.41894 -0.625068 0)
(3.00736 -0.802399 0)
(2.47691 -1.00561 0)
(1.79939 -1.24496 0)
(1.03029 -1.5018 0)
(0.2555 -1.74443 0)
(-0.499489 -1.9597 0)
(-1.18921 -2.13236 0)
(-1.73809 -2.23906 0)
(-2.19082 -2.29844 0)
(-2.58972 -2.32118 0)
(-2.91171 -2.29016 0)
(-3.16552 -2.20995 0)
(-3.41388 -2.11362 0)
(-3.69828 -2.01974 0)
(-4.01727 -1.91606 0)
(-4.3105 -1.75344 0)
(-4.53359 -1.49428 0)
(-4.71507 -1.14577 0)
(-4.88661 -0.720274 0)
(-5.03342 -0.208435 0)
(-5.07753 0.430143 0)
(-5.01194 1.17659 0)
(-4.861 1.99081 0)
(-4.60328 2.87945 0)
(-4.21952 3.85297 0)
(-3.71087 4.89807 0)
(-3.04985 6.00401 0)
(-2.20233 7.16111 0)
(-1.16348 8.35689 0)
(0.0726153 9.57624 0)
(1.49604 10.7635 0)
(3.04379 11.8351 0)
(4.62648 12.7361 0)
(6.16318 13.4248 0)
(7.58909 13.8474 0)
(8.87469 13.9769 0)
(10.024 13.8449 0)
(1.09182 -0.00546017 0)
(2.81912 -0.060824 0)
(3.86269 -0.160162 0)
(4.28993 -0.292634 0)
(4.26803 -0.447852 0)
(3.99396 -0.615792 0)
(3.59979 -0.792695 0)
(3.11946 -0.986081 0)
(2.50183 -1.21551 0)
(1.75632 -1.47793 0)
(0.968601 -1.74424 0)
(0.192033 -1.99018 0)
(-0.554025 -2.20301 0)
(-1.18968 -2.35515 0)
(-1.69077 -2.44286 0)
(-2.12873 -2.49496 0)
(-2.50789 -2.50496 0)
(-2.80473 -2.45674 0)
(-3.05995 -2.37197 0)
(-3.33499 -2.28398 0)
(-3.65494 -2.20059 0)
(-3.99392 -2.09313 0)
(-4.27886 -1.90552 0)
(-4.50484 -1.62203 0)
(-4.71341 -1.25514 0)
(-4.91917 -0.808205 0)
(-5.06309 -0.248513 0)
(-5.08092 0.450194 0)
(-4.9973 1.24506 0)
(-4.81934 2.11218 0)
(-4.51661 3.06577 0)
(-4.08041 4.10454 0)
(-3.49914 5.21817 0)
(-2.72998 6.40332 0)
(-1.75489 7.63553 0)
(-0.567615 8.89914 0)
(0.835206 10.1728 0)
(2.3856 11.3719 0)
(3.99053 12.4146 0)
(5.58353 13.2616 0)
(7.10178 13.8691 0)
(8.49459 14.1932 0)
(9.73743 14.2314 0)
(10.844 14.0292 0)
(1.21425 -0.00503731 0)
(3.11939 -0.0568654 0)
(4.28448 -0.152309 0)
(4.78744 -0.280766 0)
(4.80839 -0.433705 0)
(4.55756 -0.601719 0)
(4.17781 -0.780611 0)
(3.7319 -0.969348 0)
(3.17838 -1.18627 0)
(2.48018 -1.4436 0)
(1.69732 -1.72326 0)
(0.906858 -1.99639 0)
(0.131542 -2.24594 0)
(-0.581719 -2.44876 0)
(-1.1532 -2.57772 0)
(-1.62408 -2.65472 0)
(-2.04881 -2.70019 0)
(-2.40157 -2.69425 0)
(-2.68107 -2.63343 0)
(-2.95263 -2.55205 0)
(-3.2649 -2.47522 0)
(-3.62407 -2.39853 0)
(-3.972 -2.27515 0)
(-4.25258 -2.05912 0)
(-4.49748 -1.7559 0)
(-4.74073 -1.37393 0)
(-4.9625 -0.897519 0)
(-5.08058 -0.279123 0)
(-5.07411 0.477575 0)
(-4.97461 1.3247 0)
(-4.76312 2.25659 0)
(-4.40723 3.28221 0)
(-3.90232 4.38939 0)
(-3.21787 5.58183 0)
(-2.31692 6.84964 0)
(-1.18854 8.15654 0)
(0.176834 9.48591 0)
(1.71998 10.7844 0)
(3.3352 11.9628 0)
(4.95972 12.9663 0)
(6.54507 13.7529 0)
(8.03747 14.2752 0)
(9.38592 14.5025 0)
(10.5817 14.4567 0)
(11.6458 14.1904 0)
(1.3269 -0.00458208 0)
(3.40161 -0.0526346 0)
(4.68875 -0.143656 0)
(5.26512 -0.268344 0)
(5.33303 -0.416858 0)
(5.10468 -0.583248 0)
(4.74268 -0.762507 0)
(4.31732 -0.95195 0)
(3.82069 -1.15898 0)
(3.18514 -1.40518 0)
(2.42968 -1.68682 0)
(1.63582 -1.97868 0)
(0.84656 -2.25908 0)
(0.0851445 -2.50892 0)
(-0.569976 -2.69362 0)
(-1.08581 -2.80419 0)
(-1.54066 -2.87708 0)
(-1.94643 -2.91288 0)
(-2.27023 -2.89047 0)
(-2.54834 -2.82539 0)
(-2.85293 -2.75336 0)
(-3.21336 -2.68794 0)
(-3.60624 -2.6088 0)
(-3.95353 -2.45887 0)
(-4.24133 -2.21751 0)
(-4.51661 -1.89948 0)
(-4.78937 -1.50034 0)
(-5.00142 -0.980304 0)
(-5.08641 -0.298736 0)
(-5.06414 0.51356 0)
(-4.94492 1.4213 0)
(-4.68417 2.42954 0)
(-4.26004 3.53011 0)
(-3.65935 4.71387 0)
(-2.84112 5.99234 0)
(-1.78075 7.34183 0)
(-0.466565 8.72314 0)
(1.05325 10.0923 0)
(2.66953 11.3808 0)
(4.31106 12.529 0)
(5.93717 13.4878 0)
(7.50731 14.2096 0)
(8.95973 14.6432 0)
(10.257 14.7784 0)
(11.4069 14.6561 0)
(12.4263 14.3298 0)
(1.4293 -0.00408907 0)
(3.66366 -0.0481664 0)
(5.07487 -0.134163 0)
(5.72549 -0.255476 0)
(5.84016 -0.399169 0)
(5.63524 -0.562378 0)
(5.292 -0.738858 0)
(4.8825 -0.929623 0)
(4.42679 -1.13239 0)
(3.86026 -1.3662 0)
(3.15144 -1.64184 0)
(2.36919 -1.94184 0)
(1.57621 -2.24419 0)
(0.792107 -2.53177 0)
(0.0684196 -2.77456 0)
(-0.516114 -2.93764 0)
(-0.99707 -3.03932 0)
(-1.43983 -3.10949 0)
(-1.81731 -3.13172 0)
(-2.12086 -3.0972 0)
(-2.42063 -3.03675 0)
(-2.7744 -2.97719 0)
(-3.18636 -2.91981 0)
(-3.59763 -2.8255 0)
(-3.94343 -2.6453 0)
(-4.2525 -2.38493 0)
(-4.56202 -2.05396 0)
(-4.84695 -1.62729 0)
(-5.03113 -1.05007 0)
(-5.0904 -0.306753 0)
(-5.05496 0.562053 0)
(-4.89602 1.54201 0)
(-4.56554 2.63289 0)
(-4.05117 3.81235 0)
(-3.32079 5.08269 0)
(-2.33709 6.44888 0)
(-1.08459 7.87957 0)
(0.396166 9.31421 0)
(1.9992 10.6876 0)
(3.64766 11.9556 0)
(5.2976 13.0691 0)
(6.91864 13.9798 0)
(8.45924 14.6303 0)
(9.86077 14.9745 0)
(11.1082 15.0246 0)
(12.2111 14.8314 0)
(13.1826 14.4477 0)
(1.52108 -0.00357344 0)
(3.90414 -0.0435159 0)
(5.43972 -0.123851 0)
(6.17113 -0.241555 0)
(6.33009 -0.381851 0)
(6.152 -0.540673 0)
(5.82331 -0.713373 0)
(5.43359 -0.901219 0)
(5.00204 -1.10388 0)
(4.49968 -1.3276 0)
(3.85349 -1.59319 0)
(3.09771 -1.89342 0)
(2.31024 -2.20743 0)
(1.51986 -2.52074 0)
(0.755 -2.81152 0)
(0.0941789 -3.03884 0)
(-0.429045 -3.18478 0)
(-0.894198 -3.28541 0)
(-1.31734 -3.34937 0)
(-1.66406 -3.35698 0)
(-1.97032 -3.31911 0)
(-2.31481 -3.26983 0)
(-2.72746 -3.22332 0)
(-3.18035 -3.16562 0)
(-3.5949 -3.0455 0)
(-3.94874 -2.83876 0)
(-4.29093 -2.56468 0)
(-4.62805 -2.21575 0)
(-4.90421 -1.74579 0)
(-5.05784 -1.10392 0)
(-5.10018 -0.301821 0)
(-5.03477 0.630035 0)
(-4.80658 1.69215 0)
(-4.38542 2.86691 0)
(-3.7493 4.13344 0)
(-2.85194 5.49722 0)
(-1.67133 6.95204 0)
(-0.243253 8.4475 0)
(1.33241 9.90135 0)
(2.97487 11.2656 0)
(4.63807 12.508 0)
(6.29035 13.5841 0)
(7.89463 14.441 0)
(9.39111 15.0138 0)
(10.7405 15.2723 0)
(11.9378 15.2433 0)
(12.9918 14.984 0)
(13.911 14.5443 0)
(1.60199 -0.00302875 0)
(4.12217 -0.0387319 0)
(5.78027 -0.112884 0)
(6.60054 -0.225941 0)
(6.80486 -0.364304 0)
(6.65657 -0.518881 0)
(6.3386 -0.688509 0)
(5.96962 -0.870199 0)
(5.55818 -1.07119 0)
(5.10208 -1.28938 0)
(4.52955 -1.54291 0)
(3.81715 -1.839 0)
(3.04251 -2.15776 0)
(2.25655 -2.48473 0)
(1.47294 -2.80791 0)
(0.75065 -3.09364 0)
(0.163515 -3.30138 0)
(-0.323317 -3.43999 0)
(-0.777332 -3.54115 0)
(-1.17134 -3.59423 0)
(-1.50186 -3.5916 0)
(-1.83942 -3.56005 0)
(-2.24345 -3.52581 0)
(-2.71203 -3.48952 0)
(-3.18604 -3.4199 0)
(-3.59978 -3.2702 0)
(-3.97758 -3.04418 0)
(-4.35649 -2.75639 0)
(-4.7057 -2.37741 0)
(-4.95994 -1.84947 0)
(-5.08917 -1.14202 0)
(-5.1074 -0.280282 0)
(-4.97851 0.725885 0)
(-4.65426 1.87366 0)
(-4.11602 3.13479 0)
(-3.31738 4.49802 0)
(-2.22079 5.95982 0)
(-0.859776 7.49033 0)
(0.67449 9.02077 0)
(2.2985 10.4781 0)
(3.96373 11.827 0)
(5.63552 13.0389 0)
(7.28264 14.0734 0)
(8.8553 14.8677 0)
(10.3014 15.3614 0)
(11.598 15.539 0)
(12.7432 15.4366 0)
(13.7458 15.115 0)
(14.6079 14.6198 0)
(1.67241 -0.00249054 0)
(4.31732 -0.03401 0)
(6.09386 -0.101577 0)
(7.01051 -0.208432 0)
(7.26546 -0.344896 0)
(7.1464 -0.49674 0)
(6.84287 -0.663511 0)
(6.48568 -0.840485 0)
(6.10094 -1.03489 0)
(5.67461 -1.2503 0)
(5.17204 -1.4924 0)
(4.52347 -1.78038 0)
(3.77273 -2.10126 0)
(2.99536 -2.43504 0)
(2.21 -2.77536 0)
(1.44773 -3.10263 0)
(0.789485 -3.37428 0)
(0.263558 -3.56593 0)
(-0.208187 -3.70548 0)
(-0.642326 -3.80313 0)
(-1.01063 -3.84433 0)
(-1.35272 -3.84022 0)
(-1.74317 -3.82269 0)
(-2.20925 -3.8048 0)
(-2.71846 -3.77149 0)
(-3.19781 -3.67995 0)
(-3.62056 -3.50419 0)
(-4.03555 -3.26469 0)
(-4.44258 -2.95599 0)
(-4.78804 -2.53191 0)
(-5.01685 -1.93709 0)
(-5.12018 -1.16512 0)
(-5.08604 -0.235287 0)
(-4.86019 0.855282 0)
(-4.4165 2.08859 0)
(-3.72231 3.44407 0)
(-2.7243 4.91237 0)
(-1.4449 6.46097 0)
(0.0294233 8.04263 0)
(1.62216 9.59199 0)
(3.27877 11.0448 0)
(4.96059 12.3709 0)
(6.63642 13.5484 0)
(8.26652 14.5331 0)
(9.79635 15.2584 0)
(11.1884 15.675 0)
(12.4303 15.777 0)
(13.5218 15.6065 0)
(14.4695 15.2255 0)
(15.2703 14.6745 0)
(1.73309 -0.00199919 0)
(4.49075 -0.0295018 0)
(6.37872 -0.090493 0)
(7.39652 -0.189597 0)
(7.71164 -0.322551 0)
(7.61841 -0.473213 0)
(7.33535 -0.636664 0)
(6.98278 -0.811774 0)
(6.62336 -0.998036 0)
(6.22593 -1.20838 0)
(5.77653 -1.44235 0)
(5.20647 -1.71789 0)
(4.49942 -2.03835 0)
(3.7355 -2.37843 0)
(2.95748 -2.72717 0)
(2.17678 -3.07854 0)
(1.4574 -3.40043 0)
(0.868616 -3.65297 0)
(0.377847 -3.83747 0)
(-0.0821037 -3.97962 0)
(-0.490691 -4.06947 0)
(-0.853518 -4.10358 0)
(-1.23396 -4.10759 0)
(-1.68652 -4.10898 0)
(-2.20545 -4.10491 0)
(-2.73701 -4.06476 0)
(-3.21865 -3.94663 0)
(-3.66724 -3.75248 0)
(-4.11968 -3.4993 0)
(-4.53983 -3.15827 0)
(-4.87055 -2.6761 0)
(-5.07013 -2.01104 0)
(-5.12891 -1.17082 0)
(-5.00584 -0.159317 0)
(-4.65849 1.01989 0)
(-4.06418 2.34384 0)
(-3.17299 3.80529 0)
(-1.98736 5.36958 0)
(-0.590511 6.9815 0)
(0.951266 8.6004 0)
(2.58605 10.1594 0)
(4.27006 11.5987 0)
(5.96391 12.8961 0)
(7.63551 14.0336 0)
(9.23615 14.96 0)
(10.7141 15.6136 0)
(12.0497 15.9572 0)
(13.2355 15.9885 0)
(14.2708 15.7545 0)
(15.1599 15.3163 0)
(15.896 14.7092 0)
(1.78486 -0.00155389 0)
(4.64429 -0.0254022 0)
(6.63598 -0.0800331 0)
(7.75391 -0.170604 0)
(8.14071 -0.297487 0)
(8.07425 -0.447037 0)
(7.80924 -0.607511 0)
(7.46473 -0.78079 0)
(7.11759 -0.962296 0)
(6.75475 -1.16329 0)
(6.34413 -1.39126 0)
(5.85162 -1.65273 0)
(5.21255 -1.96644 0)
(4.47522 -2.3136 0)
(3.70952 -2.67078 0)
(2.92823 -3.0351 0)
(2.16733 -3.39057 0)
(1.50716 -3.69757 0)
(0.974152 -3.93328 0)
(0.499897 -4.11851 0)
(0.0588769 -4.25988 0)
(-0.334023 -4.34254 0)
(-0.717343 -4.37782 0)
(-1.15314 -4.39795 0)
(-1.66545 -4.41937 0)
(-2.22275 -4.42269 0)
(-2.76506 -4.36636 0)