/*--------------------------------*- C++ -*----------------------------------*\
| =========                 |                                                 |
| \\      /  F ield         | OpenFOAM: The Open Source CFD Toolbox           |
|  \\    /   O peration     | Version:  5.x                                   |
|   \\  /    A nd           | Web:      www.OpenFOAM.org                      |
|    \\/     M anipulation  |                                                 |
\*---------------------------------------------------------------------------*/
FoamFile
{
    version     2.0;
    format      ascii;
    class       volVectorField;
    location    "0";
    object      Urom;
}
// * * * * * * * * * * * * * * * * * * * * * * * * * * * * * * * * * * * * * //

dimensions      [0 1 -1 0 0 0 0];

internalField   nonuniform List<vector> 
17568
(
(17.2724 0.614928 0)
(13.1869 0.558592 0)
(20.2333 1.08275 0)
(9.51254 0.28292 0)
(20.1536 1.35791 0)
(20.1095 0.78994 0)
(6.89223 0.0990283 0)
(18.9705 1.11518 0)
(20.9088 1.21457 0)
(20.0422 0.607222 0)
(5.46896 0.00752374 0)
(17.2233 0.807305 0)
(21.2582 1.14533 0)
(20.6986 1.05476 0)
(20.0314 0.482483 0)
(4.73136 -0.0199326 0)
(15.5447 0.513118 0)
(20.9918 0.971189 0)
(21.31 1.05592 0)
(20.5241 0.93135 0)
(20.0234 0.385327 0)
(4.2986 -0.0160003 0)
(14.1332 0.305047 0)
(20.3673 0.76115 0)
(21.6008 0.951364 0)
(21.0668 0.970368 0)
(20.4041 0.813518 0)
(20.017 0.309242 0)
(4.00657 -0.00744432 0)
(12.9881 0.1903 0)
(19.6034 0.582254 0)
(21.6127 0.81364 0)
(21.4282 0.890617 0)
(20.8644 0.884286 0)
(20.312 0.703677 0)
(20.0125 0.250426 0)
(3.78035 -0.00153505 0)
(12.0714 0.133714 0)
(18.8117 0.457109 0)
(21.4455 0.681764 0)
(21.6123 0.786304 0)
(21.1994 0.82345 0)
(20.7021 0.800461 0)
(20.2412 0.605604 0)
(20.0094 0.205057 0)
(3.58796 0.00135199 0)
(11.3322 0.10491 0)
(18.0487 0.37304 0)
(21.1729 0.580911 0)
(21.6782 0.684167 0)
(21.3965 0.739435 0)
(21.0076 0.760281 0)
(20.5687 0.721523 0)
(20.1875 0.519852 0)
(20.0073 0.169813 0)
(3.41884 0.00229738 0)
(10.7227 0.0877877 0)
(17.3365 0.312823 0)
(20.8432 0.508078 0)
(21.669 0.60369 0)
(21.508 0.656953 0)
(21.1956 0.693014 0)
(20.8461 0.702509 0)
(20.46 0.647578 0)
(20.1468 0.445867 0)
(20.0057 0.142101 0)
(3.27017 0.00234865 0)
(10.2078 0.075519 0)
(16.6791 0.266532 0)
(20.4825 0.452093 0)
(21.6119 0.545584 0)
(21.5725 0.589806 0)
(21.308 0.626133 0)
(21.0254 0.649864 0)
(20.7089 0.648362 0)
(20.3721 0.578621 0)
(20.1158 0.382671 0)
(20.0045 0.12 0)
(3.14002 0.00213888 0)
(9.76471 0.0655895 0)
(16.0748 0.229544 0)
(20.1044 0.405577 0)
(21.5208 0.501383 0)
(21.6103 0.540693 0)
(21.3827 0.569092 0)
(21.1346 0.595854 0)
(20.8794 0.608835 0)
(20.5929 0.596624 0)
(20.3015 0.514951 0)
(20.0923 0.329025 0)
(20.0036 0.102114 0)
(3.02586 0.00191698 0)
(9.37875 0.0572661 0)
(15.5207 0.19937 0)
(19.7169 0.365292 0)
(21.4014 0.464303 0)
(21.6304 0.503909 0)
(21.4396 0.525385 0)
(21.2089 0.547701 0)
(20.9859 0.565496 0)
(20.7535 0.569336 0)
(20.4952 0.546987 0)
(20.245 0.456817 0)
(20.0741 0.283642 0)
(20.0029 0.087443 0)
(2.92509 0.0017329 0)
(9.03942 0.0503332 0)
(15.0138 0.174479 0)
(19.3268 0.329816 0)
(21.2566 0.431255 0)
(21.6347 0.4736 0)
(21.487 0.492119 0)
(21.2673 0.508561 0)
(21.059 0.525485 0)
(20.8574 0.535112 0)
(20.6449 0.53128 0)
(20.4133 0.499515 0)
(20.1998 0.404313 0)
(20.06 0.245292 0)
(20.0024 0.0752717 0)
(2.83543 0.0015792 0)
(8.73873 0.0445976 0)
(14.5506 0.153844 0)
(18.9402 0.298407 0)
(21.0899 0.401068 0)
(21.6227 0.44678 0)
(21.5273 0.464908 0)
(21.3179 0.477631 0)
(21.1169 0.491062 0)
(20.9295 0.502478 0)
(20.746 0.505114 0)
(20.5515 0.494553 0)
(20.3449 0.454418 0)
(20.1636 0.357358 0)
(20.0489 0.21283 0)
(20.002 0.0650809 0)
(2.75505 0.00144576 0)
(8.4703 0.0398258 0)
(14.1276 0.136651 0)
(18.5617 0.270605 0)
(20.9057 0.373246 0)
(21.5945 0.422287 0)
(21.56 0.441128 0)
(21.3636 0.452084 0)
(21.1671 0.462578 0)
(20.9868 0.472921 0)
(20.8169 0.479019 0)
(20.649 0.475713 0)
(20.4711 0.459031 0)
(20.2881 0.411934 0)
(20.1346 0.315675 0)
(20.0402 0.185251 0)
(20.0016 0.0564817 0)
(2.68256 0.00132663 0)
(8.22918 0.0358033 0)
(13.7409 0.122205 0)
(18.1948 0.246014 0)
(20.7078 0.347551 0)
(21.5508 0.399606 0)
(21.5847 0.419695 0)
(21.405 0.429789 0)
(21.2123 0.438562 0)
(21.0364 0.447185 0)
(20.8734 0.454238 0)
(20.7186 0.455336 0)
(20.5645 0.446948 0)
(20.4021 0.42466 0)
(20.241 0.372258 0)
(20.1113 0.278858 0)
(20.0332 0.161706 0)
(20.0013 0.0491756 0)
(2.61686 0.00122044 0)
(8.01143 0.0323634 0)
(13.3869 0.109943 0)
(17.8415 0.224237 0)
(20.5001 0.323818 0)
(21.4927 0.378435 0)
(21.6014 0.400102 0)
(21.442 0.409785 0)
(21.2536 0.417457 0)
(21.0808 0.424851 0)
(20.9225 0.431452 0)
(20.7742 0.435047 0)
(20.6326 0.431592 0)
(20.4907 0.418813 0)
(20.3431 0.391482 0)
(20.2021 0.33551 0)
(20.0924 0.246423 0)
(20.0275 0.141502 0)
(20.0011 0.0429296 0)
(2.55705 0.00112991 0)
(7.81392 0.0293878 0)
(13.0621 0.099418 0)
(17.5031 0.204902 0)
(20.2857 0.301881 0)
(21.422 0.358577 0)
(21.6099 0.381998 0)
(21.4751 0.391627 0)
(21.2914 0.398434 0)
(21.121 0.404975 0)
(20.9662 0.410937 0)
(20.8226 0.415304 0)
(20.6871 0.415404 0)
(20.557 0.407929 0)
(20.4263 0.3913 0)
(20.2928 0.359609 0)
(20.1698 0.301724 0)
(20.0771 0.217871 0)
(20.023 0.124077 0)
(20.0009 0.0375587 0)
(2.50241 0.00105045 0)
(7.63403 0.0267924 0)
(12.7637 0.0903027 0)
(17.1806 0.187677 0)
(20.0675 0.281584 0)
(21.3399 0.339858 0)
(21.6107 0.365111 0)
(21.5044 0.374993 0)
(21.3266 0.381128 0)
(21.1578 0.386915 0)
(21.0056 0.392359 0)
(20.8658 0.396732 0)
(20.7347 0.398693 0)
(20.6105 0.395419 0)
(20.4905 0.384463 0)
(20.3701 0.364426 0)
(20.2499 0.329183 0)
(20.1431 0.270839 0)
(20.0646 0.19272 0)
(20.0193 0.108972 0)
(20.0008 0.0329142 0)
(2.45225 0.000996789 0)
(7.46972 0.0245129 0)
(12.4889 0.0823325 0)
(16.8741 0.172293 0)
(19.8477 0.26278 0)
(21.248 0.322152 0)
(21.6038 0.349217 0)
(21.5298 0.359603 0)
(21.3591 0.365269 0)
(21.1919 0.370368 0)
(21.0415 0.375307 0)
(20.9046 0.379515 0)
(20.7774 0.382165 0)
(20.6571 0.381634 0)
(20.5427 0.375223 0)
(20.4319 0.361271 0)
(20.3212 0.338238 0)
(20.2136 0.300334 0)
(20.1209 0.242731 0)
(20.0544 0.170528 0)
(20.0162 0.0958132 0)
(20.0007 0.028875 0)
(2.40618 0.000931651 0)
(7.31903 0.0225082 0)
(12.2355 0.0753251 0)
(16.5834 0.158494 0)
(19.6284 0.24536 0)
(21.1476 0.305353 0)
(21.5895 0.334151 0)
(21.5516 0.345218 0)
(21.3897 0.350613 0)
(21.224 0.355125 0)
(21.0746 0.359548 0)
(20.9398 0.363517 0)
(20.8157 0.366378 0)
(20.699 0.367211 0)
(20.5882 0.364182 0)
(20.4825 0.35494 0)
(20.3801 0.338412 0)
(20.2787 0.312804 0)
(20.1828 0.273153 0)
(20.1026 0.217224 0)
(20.046 0.150906 0)
(20.0137 0.0842943 0)
(20.0006 0.0253422 0)
(2.36348 0.000893577 0)
(7.1808 0.0207465 0)
(12.0012 0.0691059 0)
(16.3084 0.1461 0)
(19.4113 0.229193 0)
(21.0401 0.289407 0)
(21.5683 0.319783 0)
(21.5696 0.331665 0)
(21.4183 0.336943 0)
(21.2543 0.340986 0)
(21.1057 0.344924 0)
(20.9722 0.34859 0)
(20.8504 0.351476 0)
(20.7369 0.352916 0)
(20.6294 0.351867 0)
(20.527 0.34641 0)
(20.4292 0.334671 0)
(20.3345 0.315931 0)
(20.2419 0.288211 0)
(20.1567 0.247685 0)
(20.0872 0.194116 0)
(20.039 0.133506 0)
(20.0117 0.07416 0)
(20.0005 0.0222343 0)
(2.32416 0.000843802 0)
(7.05305 0.0191752 0)
(11.7847 0.0636107 0)
(16.0485 0.134905 0)
(19.1974 0.214219 0)
(20.9269 0.274236 0)
(21.5405 0.306045 0)
(21.5839 0.318803 0)
(21.4451 0.3241 0)
(21.2833 0.327765 0)
(21.1352 0.33128 0)
(21.0025 0.334619 0)
(20.8822 0.337421 0)
(20.7711 0.339144 0)
(20.6668 0.339108 0)
(20.5673 0.336146 0)
(20.4724 0.328402 0)
(20.3818 0.314504 0)
(20.2943 0.293876 0)
(20.2102 0.264547 0)
(20.1347 0.22393 0)
(20.0746 0.173186 0)
(20.0333 0.11802 0)
(20.01 0.0651978 0)
(20.0004 0.0194839 0)
(2.28703 0.000856669 0)
(6.93578 0.0177862 0)
(11.5835 0.0586862 0)
(15.8033 0.124829 0)
(18.9879 0.200292 0)
(20.8093 0.25984 0)
(21.5066 0.292851 0)
(21.5944 0.306551 0)
(21.4702 0.311955 0)
(21.311 0.315323 0)
(21.1632 0.318462 0)
(21.0311 0.321493 0)
(20.9119 0.324138 0)
(20.8026 0.325986 0)
(20.7007 0.326492 0)
(20.6041 0.32494 0)
(20.5118 0.320079 0)
(20.4237 0.310244 0)
(20.3396 0.294502 0)
(20.259 0.272304 0)
(20.1828 0.241889 0)
(20.1161 0.201847 0)
(20.064 0.154217 0)
(20.0286 0.104186 0)
(20.0086 0.0572288 0)
(20.0004 0.0170345 0)
(2.25315 0.000813106 0)
(6.82586 0.016591 0)
(11.3976 0.0543453 0)
(15.5715 0.11566 0)
(18.7837 0.187437 0)
(20.688 0.246124 0)
(21.4669 0.2802 0)
(21.6012 0.294812 0)
(21.4935 0.300431 0)
(21.3377 0.303553 0)
(21.1903 0.306357 0)
(21.0585 0.309091 0)
(20.94 0.311555 0)
(20.8319 0.313421 0)
(20.7318 0.314251 0)
(20.6377 0.3135 0)
(20.548 0.310415 0)
(20.462 0.303714 0)
(20.3802 0.292017 0)
(20.3022 0.274723 0)
(20.228 0.251276 0)
(20.1593 0.220291 0)
(20.1004 0.18136 0)
(20.0551 0.136995 0)
(20.0246 0.0917735 0)
(20.0074 0.0501024 0)
(20.0003 0.0148387 0)
(2.21961 0.000885514 0)
(6.72596 0.0155387 0)
(11.2231 0.0504204 0)
(15.3537 0.107494 0)
(18.5848 0.175447 0)
(20.5645 0.233169 0)
(21.4222 0.267998 0)
(21.6044 0.283569 0)
(21.515 0.28944 0)
(21.3634 0.29239 0)
(21.2164 0.294875 0)
(21.0848 0.297326 0)
(20.9668 0.29959 0)
(20.8595 0.301407 0)
(20.7607 0.302421 0)
(20.6685 0.302184 0)
(20.5811 0.300157 0)
(20.4974 0.295544 0)
(20.4174 0.287111 0)
(20.3412 0.273794 0)
(20.2689 0.255218 0)
(20.2009 0.230851 0)
(20.1391 0.199778 0)
(20.0871 0.162374 0)
(20.0477 0.121324 0)
(20.0213 0.0805837 0)
(20.0065 0.04369 0)
(20.0003 0.0128564 0)
(2.19043 0.000772821 0)
(6.62873 0.0147417 0)
(11.0632 0.0470658 0)
(15.1468 0.0999707 0)
(18.3928 0.164518 0)
(20.4392 0.220825 0)
(21.3729 0.256339 0)
(21.604 0.272726 0)
(21.5347 0.278957 0)
(21.3882 0.28176 0)
(21.2418 0.283963 0)
(21.1102 0.286126 0)
(20.9925 0.28818 0)
(20.886 0.289898 0)
(20.7881 0.290996 0)
(20.6971 0.291103 0)
(20.6115 0.28977 0)
(20.53 0.286461 0)
(20.4519 0.280353 0)
(20.3772 0.270331 0)
(20.3064 0.255637 0)
(20.2395 0.236033 0)
(20.1772 0.211079 0)
(20.1218 0.180352 0)
(20.0759 0.144777 0)
(20.0415 0.107018 0)
(20.0187 0.070443 0)
(20.0057 0.037882 0)
(20.0002 0.0110533 0)
(2.15753 0.00104765 0)
(6.54439 0.0139487 0)
(10.9089 0.0440337 0)
(14.9541 0.0935205 0)
(18.2061 0.154244 0)
(20.3136 0.209321 0)
(21.3193 0.24507 0)
(21.6 0.262356 0)
(21.5526 0.268897 0)
(21.4121 0.271638 0)
(21.2665 0.273564 0)
(21.1348 0.275451 0)
(21.0173 0.277274 0)
(20.9112 0.278857 0)
(20.8141 0.279961 0)
(20.7242 0.280283 0)
(20.64 0.279444 0)
(20.5602 0.277002 0)
(20.484 0.272422 0)
(20.4109 0.26488 0)
(20.3412 0.253438 0)
(20.2752 0.237595 0)
(20.2135 0.217213 0)
(20.1566 0.192001 0)
(20.1069 0.161987 0)
(20.0665 0.128452 0)
(20.0363 0.0939108 0)
(20.0164 0.0611994 0)
(20.005 0.0325836 0)
(20.0002 0.0093996 0)
(2.13368 0.000719153 0)
(6.45263 0.0136589 0)
(10.7726 0.0417009 0)
(14.7677 0.0874043 0)
(18.0275 0.145255 0)
(20.1871 0.198316 0)
(21.2622 0.234454 0)
(21.5927 0.252315 0)
(21.5685 0.259303 0)
(21.4351 0.26196 0)
(21.2905 0.263655 0)
(21.1589 0.26526 0)
(21.0414 0.266843 0)
(20.9356 0.268257 0)
(20.8391 0.269306 0)
(20.7501 0.269739 0)
(20.6669 0.269241 0)
(20.5884 0.267429 0)
(20.5139 0.263879 0)
(20.4424 0.258051 0)
(20.3739 0.249166 0)
(20.3088 0.236484 0)
(20.2476 0.219716 0)
(20.1905 0.198798 0)
(20.1389 0.173638 0)
(20.0942 0.144641 0)
(20.0585 0.113277 0)
(20.032 0.0818456 0)
(20.0145 0.0527187 0)
(20.0045 0.0277118 0)
(20.0002 0.00786795 0)
(2.09544 0.00147462 0)
(6.38553 0.0130948 0)
(10.6297 0.0395523 0)
(14.5984 0.0827667 0)
(17.8524 0.136625 0)
(20.0621 0.188464 0)
(21.2016 0.224205 0)
(21.5821 0.242838 0)
(21.5826 0.250081 0)
(21.4571 0.252746 0)
(21.3141 0.254192 0)
(21.1824 0.255527 0)
(21.0648 0.256858 0)
(20.9593 0.25808 0)
(20.8633 0.259023 0)
(20.7748 0.259482 0)
(20.6925 0.259198 0)
(20.6151 0.257845 0)
(20.5417 0.25505 0)
(20.4718 0.250403 0)
(20.4046 0.243372 0)
(20.3404 0.233257 0)
(20.2798 0.219522 0)
(20.2228 0.202037 0)
(20.1703 0.180822 0)
(20.1234 0.155998 0)
(20.0835 0.128255 0)
(20.0517 0.0991299 0)
(20.0284 0.0706802 0)
(20.0129 0.0448822 0)
(20.004 0.023189 0)
(20.0002 0.00643808 0)
(2.08193 0.00041804 0)
(6.28495 0.0137492 0)
(10.5183 0.0384261 0)
(14.4258 0.0780224 0)
(17.6881 0.129811 0)
(19.9362 0.178955 0)
(21.1386 0.21489 0)
(21.5682 0.233713 0)
(21.5947 0.241384 0)
(21.4782 0.243949 0)
(21.3371 0.245182 0)
(21.2054 0.246231 0)
(21.0878 0.247303 0)
(20.9823 0.248308 0)
(20.8866 0.249108 0)
(20.7986 0.249527 0)
(20.7171 0.24935 0)
(20.6406 0.248312 0)
(20.5683 0.246083 0)
(20.4995 0.242305 0)
(20.4336 0.236585 0)
(20.3705 0.228412 0)
(20.3104 0.217197 0)
(20.2537 0.202593 0)
(20.2009 0.18459 0)
(20.1527 0.163308 0)
(20.11 0.139068 0)
(20.0743 0.112755 0)
(20.046 0.0858893 0)
(20.0254 0.0602839 0)
(20.0116 0.0375761 0)
(20.0036 0.0189584 0)
(20.0002 0.00508804 0)
(2.02292 0.00248934 0)
(6.24675 0.0131115 0)
(10.3703 0.0374893 0)
(14.2805 0.0756164 0)
(17.5219 0.122945 0)
(19.8137 0.171158 0)
(21.0723 0.205939 0)
(21.5514 0.225359 0)
(21.6048 0.233102 0)
(21.4984 0.235657 0)
(21.3595 0.23661 0)
(21.228 0.23737 0)
(21.1102 0.238163 0)
(21.0048 0.238933 0)
(20.9093 0.239556 0)
(20.8218 0.239883 0)
(20.7408 0.239733 0)
(20.665 0.238884 0)
(20.5936 0.237062 0)
(20.5257 0.233946 0)
(20.461 0.229196 0)
(20.399 0.222439 0)
(20.3396 0.213202 0)
(20.2833 0.201028 0)
(20.2304 0.185733 0)
(20.1815 0.167403 0)
(20.1373 0.146267 0)
(20.0986 0.122819 0)
(20.0664 0.0980596 0)
(20.0413 0.0734379 0)
(20.0229 0.0505288 0)
(20.0106 0.0307141 0)
(20.0033 0.014957 0)
(20.0001 0.00379333 0)
(2.03918 -0.000868441 0)
(6.10238 0.0160788 0)
(10.2949 0.0378547 0)
(14.1089 0.0726606 0)
(17.3728 0.11882 0)
(19.6882 0.16359 0)
(21.0049 0.198377 0)
(21.5314 0.217478 0)
(21.6129 0.225494 0)
(21.5175 0.22785 0)
(21.3814 0.228527 0)
(21.2502 0.22895 0)
(21.1324 0.229439 0)
(21.0269 0.229949 0)
(20.9315 0.230364 0)
(20.8443 0.230556 0)
(20.7638 0.230366 0)
(20.6886 0.229609 0)
(20.6179 0.228058 0)
(20.5509 0.225434 0)
(20.487 0.221431 0)
(20.4259 0.215729 0)
(20.3675 0.207981 0)
(20.3117 0.197774 0)
(20.2589 0.184787 0)
(20.2096 0.168969 0)
(20.1644 0.150494 0)
(20.1238 0.129697 0)
(20.0888 0.107209 0)
(20.0599 0.0840805 0)
(20.0373 0.0616536 0)
(20.0208 0.0413113 0)
(20.0097 0.0242011 0)
(20.0031 0.0111146 0)
(20.0001 0.0025374 0)
(1.92535 0.00777922 0)
(6.13289 0.0115922 0)
(10.1058 0.0401399 0)
(13.9933 0.0727752 0)
(17.2087 0.114709 0)
(19.5697 0.158405 0)
(20.9336 0.191412 0)
(21.5089 0.21068 0)
(21.6189 0.218506 0)
(21.5355 0.220676 0)
(21.4027 0.220974 0)
(21.272 0.221007 0)
(21.1541 0.221151 0)
(21.0486 0.22136 0)
(20.9533 0.221536 0)
(20.8664 0.22155 0)
(20.7862 0.221268 0)
(20.7115 0.220525 0)
(20.6413 0.219131 0)
(20.5751 0.216853 0)
(20.512 0.213419 0)
(20.4518 0.208536 0)
(20.3942 0.201914 0)
(20.339 0.193234 0)
(20.2864 0.182162 0)
(20.237 0.168506 0)
(20.1911 0.152325 0)
(20.1493 0.133872 0)
(20.1123 0.11358 0)
(20.0804 0.0921806 0)
(20.0544 0.0707174 0)
(20.034 0.050432 0)
(20.0191 0.0325173 0)
(20.009 0.0179327 0)
(20.0029 0.00738384 0)
(20.0001 0.00129748 0)
(1.92039 -0.0869387 0)
(5.86181 0.0338068 0)
(10.0981 0.0376262 0)
(13.7986 0.0750547 0)
(17.0765 0.11337 0)
(19.4425 0.154311 0)
(20.8627 0.186236 0)
(21.4829 0.204843 0)
(21.6228 0.212429 0)
(21.5523 0.214239 0)
(21.4234 0.214034 0)
(21.2933 0.213612 0)
(21.1754 0.213324 0)
(21.07 0.213192 0)
(20.9748 0.21308 0)
(20.888 0.212878 0)
(20.8081 0.212451 0)
(20.7338 0.211659 0)
(20.6642 0.210333 0)
(20.5985 0.208277 0)
(20.536 0.205257 0)
(20.4765 0.20101 0)
(20.4196 0.195266 0)
(20.3651 0.187762 0)
(20.313 0.17822 0)
(20.2637 0.166392 0)
(20.2175 0.152207 0)
(20.1748 0.135813 0)
(20.1362 0.117534 0)
(20.1022 0.09789 0)
(20.0733 0.0776627 0)
(20.0498 0.0578784 0)
(20.0315 0.0396565 0)
(20.0178 0.0240222 0)
(20.0085 0.011834 0)
(20.0028 0.00369835 0)
(20.0001 5.09216e-05 0)
(6.00742 -0.0660897 0)
(2.73006 0.403838 0)
(9.79799 0.0623051 0)
(13.7236 0.0723409 0)
(16.902 0.116708 0)
(19.3283 0.151975 0)
(20.786 0.183107 0)
(21.4548 0.200328 0)
(21.6245 0.207577 0)
(21.5679 0.208638 0)
(21.4435 0.20789 0)
(21.3144 0.206819 0)
(21.1966 0.206049 0)
(21.0911 0.205476 0)
(20.9959 0.205027 0)
(20.9093 0.204551 0)
(20.8296 0.203934 0)
(20.7556 0.203033 0)
(20.6864 0.201702 0)
(20.6213 0.199767 0)
(20.5594 0.19703 0)
(20.5005 0.19326 0)
(20.4442 0.188206 0)
(20.3903 0.181626 0)
(20.3387 0.173287 0)
(20.2896 0.16296 0)
(20.2432 0.150492 0)
(20.2001 0.13591 0)
(20.1604 0.119436 0)
(20.1249 0.101465 0)
(20.0938 0.0825761 0)
(20.0675 0.0635813 0)
(20.046 0.0454552 0)
(20.0293 0.0291953 0)
(20.0169 0.0157298 0)
(20.0082 0.00580059 0)
(20.0027 -7.71649e-06 0)
(20.0001 -0.00118493 0)
(9.87713 -0.0089114 0)
(5.66586 0.25584 0)
(1.46576 0.916941 0)
(4.09061 0.494809 0)
(13.4708 0.10217 0)
(16.786 0.113319 0)
(19.1941 0.156554 0)
(20.7115 0.180906 0)
(21.423 0.19846 0)
(21.6239 0.203819 0)
(21.5823 0.204407 0)
(21.463 0.202572 0)
(21.3351 0.200842 0)
(21.2174 0.199369 0)
(21.1119 0.198294 0)
(21.0168 0.197409 0)
(20.9303 0.196606 0)
(20.8508 0.195733 0)
(20.7772 0.194667 0)
(20.7083 0.193264 0)
(20.6434 0.191369 0)
(20.5821 0.188807 0)
(20.5237 0.185376 0)
(20.4679 0.180854 0)
(20.4146 0.175008 0)
(20.3636 0.167624 0)
(20.3148 0.158504 0)
(20.2685 0.147477 0)
(20.2249 0.134479 0)
(20.1846 0.119621 0)
(20.1479 0.103191 0)
(20.1151 0.0856356 0)
(20.0866 0.0675845 0)
(20.0626 0.0498454 0)
(20.043 0.0333225 0)
(20.0277 0.0189384 0)
(20.0162 0.00750803 0)
(20.008 -0.000270738 0)
(20.0027 -0.00368195 0)
(20.0001 -0.00239297 0)
(13.4144 0.0559082 0)
(9.47499 0.261858 0)
(6.1797 0.290442 0)
(0.997933 1.39511 0)
(2.95044 0.803484 0)
(4.98985 0.112784 0)
(16.5859 0.146157 0)
(19.0811 0.154373 0)
(20.6276 0.186712 0)
(21.3889 0.197204 0)
(21.621 0.202944 0)
(21.5952 0.201226 0)
(21.4818 0.198654 0)
(21.3553 0.195703 0)
(21.2379 0.1935 0)
(21.1325 0.19171 0)
(21.0375 0.190312 0)
(20.9511 0.189075 0)
(20.8718 0.187884 0)
(20.7982 0.186587 0)
(20.7297 0.185048 0)
(20.6652 0.18312 0)
(20.6043 0.180641 0)
(20.5464 0.177437 0)
(20.4911 0.173305 0)
(20.4383 0.168035 0)
(20.3876 0.161418 0)
(20.3391 0.153268 0)
(20.2931 0.143426 0)
(20.2495 0.131786 0)
(20.2086 0.118364 0)
(20.1711 0.103341 0)
(20.137 0.0870584 0)
(20.1068 0.070008 0)
(20.0806 0.0528434 0)
(20.0587 0.0363425 0)
(20.0408 0.0213667 0)
(20.0266 0.00874025 0)
(20.0158 -0.000773948 0)
(20.008 -0.00629198 0)
(20.0028 -0.00727268 0)
(20.0001 -0.00359089 0)
(16.4627 0.121764 0)
(13.1383 0.272703 0)
(9.40895 0.251025 0)
(6.83644 0.0333942 0)
(0.723013 1.72173 0)
(2.10275 1.04579 0)
(3.75912 0.174778 0)
(4.96943 -0.00746729 0)
(18.9335 0.186611 0)
(20.5473 0.187344 0)
(21.3502 0.203933 0)
(21.6156 0.202839 0)
(21.6069 0.200894 0)
(21.4997 0.195855 0)
(21.3752 0.191927 0)
(21.2582 0.188482 0)
(21.1529 0.185912 0)
(21.058 0.183803 0)
(20.9717 0.182045 0)
(20.8925 0.180435 0)
(20.8192 0.178832 0)
(20.7508 0.177083 0)
(20.6867 0.17505 0)
(20.6261 0.172576 0)
(20.5686 0.169499 0)
(20.5137 0.165641 0)
(20.4613 0.160807 0)
(20.411 0.154802 0)
(20.363 0.14744 0)
(20.3172 0.138568 0)
(20.2735 0.128069 0)
(20.2325 0.115902 0)
(20.1943 0.102152 0)
(20.1593 0.0870607 0)
(20.1278 0.0710106 0)
(20.1 0.054526 0)
(20.0759 0.0382555 0)
(20.0558 0.0229648 0)
(20.0392 0.00943765 0)
(20.026 -0.00154901 0)
(20.0157 -0.00899267 0)
(20.0081 -0.012173 0)
(20.0029 -0.0108304 0)
(20.0001 -0.00479787 0)
(18.8104 0.181583 0)
(16.2603 0.281882 0)
(12.9593 0.281119 0)
(9.62979 0.0213175 0)
(6.90001 -0.0269411 0)
(0.41444 1.90766 0)
(1.27707 1.20039 0)
(2.70132 0.17586 0)
(3.48241 -0.0395537 0)
(4.83248 0.0259882 0)
(20.4542 0.217021 0)
(21.3096 0.207888 0)
(21.6081 0.209967 0)
(21.617 0.201737 0)
(21.5172 0.195718 0)
(21.3948 0.189365 0)
(21.2783 0.184767 0)
(21.1732 0.180979 0)
(21.0784 0.178047 0)
(20.9922 0.17559 0)
(20.9131 0.173453 0)
(20.84 0.171444 0)
(20.7718 0.16941 0)
(20.7079 0.167195 0)
(20.6475 0.164645 0)
(20.5904 0.161612 0)
(20.5358 0.157925 0)
(20.4838 0.153409 0)
(20.4339 0.147878 0)
(20.3862 0.141154 0)
(20.3406 0.133078 0)
(20.2972 0.123532 0)
(20.256 0.112443 0)
(20.2174 0.0998304 0)
(20.1817 0.0858405 0)
(20.1492 0.0707594 0)
(20.12 0.0550043 0)
(20.0943 0.0391083 0)
(20.0723 0.0237251 0)
(20.0537 0.00956648 0)
(20.0384 -0.00262083 0)
(20.026 -0.0117666 0)
(20.016 -0.0170135 0)
(20.0084 -0.0179927 0)
(20.003 -0.0144117 0)
(20.0002 -0.00603442 0)
(20.3676 0.226279 0)
(18.6642 0.293984 0)
(16.1065 0.312771 0)
(12.9398 0.0815971 0)
(9.56639 -0.0365125 0)
(6.86958 0.0223809 0)
(0.0911054 1.93376 0)
(0.398468 1.23874 0)
(1.58607 0.109607 0)
(2.09438 -0.148158 0)
(3.05144 -0.0275478 0)
(4.70582 0.0833676 0)
(21.2649 0.234262 0)
(21.5986 0.216722 0)
(21.6262 0.208752 0)
(21.534 0.19718 0)
(21.4141 0.189222 0)
(21.2983 0.182342 0)
(21.1934 0.177274 0)
(21.0987 0.173157 0)
(21.0126 0.169856 0)
(20.9337 0.167029 0)
(20.8607 0.164497 0)
(20.7927 0.162072 0)
(20.7289 0.159591 0)
(20.6688 0.15689 0)
(20.6118 0.153816 0)
(20.5576 0.150211 0)
(20.5059 0.145908 0)
(20.4564 0.140733 0)
(20.409 0.134514 0)
(20.3636 0.127092 0)
(20.3203 0.11834 0)
(20.2792 0.108168 0)
(20.2404 0.0965539 0)
(20.2042 0.0835707 0)
(20.1709 0.0694133 0)
(20.1407 0.0544031 0)
(20.1137 0.0389739 0)
(20.09 0.0236707 0)
(20.0697 0.00911616 0)
(20.0525 -0.00400718 0)
(20.0383 -0.0146043 0)
(20.0264 -0.0217286 0)
(20.0166 -0.0249361 0)
(20.0089 -0.0238416 0)
(20.0032 -0.0180768 0)
(20.0002 -0.00732071 0)
(21.2235 0.2523 0)
(20.2785 0.303927 0)
(18.5557 0.33627 0)
(16.0241 0.157011 0)
(12.7544 0.00642449 0)
(9.43724 0.00697824 0)
(6.91352 0.103722 0)
(-0.210584 1.79864 0)
(-0.485387 1.14367 0)
(0.344048 -0.0392661 0)
(0.609797 -0.353227 0)
(1.28349 -0.149601 0)
(2.67742 0.0222996 0)
(4.52832 0.139759 0)
(21.5883 0.239749 0)
(21.635 0.217269 0)
(21.5507 0.203755 0)
(21.4334 0.191002 0)
(21.3183 0.182097 0)
(21.2136 0.1749 0)
(21.1191 0.169422 0)
(21.0331 0.164965 0)
(20.9542 0.161283 0)
(20.8813 0.158075 0)
(20.8135 0.155142 0)
(20.7499 0.15229 0)
(20.6898 0.14935 0)
(20.6331 0.146152 0)
(20.5791 0.142541 0)
(20.5276 0.138358 0)
(20.4784 0.133435 0)
(20.4313 0.127606 0)
(20.3861 0.120714 0)
(20.343 0.112621 0)
(20.302 0.103228 0)
(20.263 0.0924822 0)
(20.2266 0.0804041 0)
(20.1927 0.0671133 0)
(20.1617 0.0528444 0)
(20.1337 0.0379403 0)
(20.1088 0.0228473 0)
(20.087 0.00809342 0)
(20.0683 -0.00571808 0)
(20.0524 -0.0175058 0)
(20.0389 -0.0262743 0)
(20.0273 -0.0315452 0)
(20.0174 -0.0328802 0)
(20.0095 -0.0298147 0)
(20.0035 -0.0218837 0)
(20.0002 -0.00867543 0)
(21.5826 0.261848 0)
(21.1859 0.306688 0)
(20.2209 0.34849 0)
(18.479 0.224444 0)
(15.8221 0.0762346 0)
(12.4901 0.031849 0)
(9.43979 0.0955644 0)
(6.85313 0.185387 0)
(-0.461527 1.52866 0)
(-1.2954 0.927083 0)
(-0.953256 -0.284371 0)
(-0.968026 -0.640219 0)
(-0.491852 -0.322578 0)
(0.796509 -0.0484808 0)
(2.51699 0.109529 0)
(4.42175 0.270238 0)
(21.6448 0.237253 0)
(21.5683 0.213021 0)
(21.4532 0.196996 0)
(21.3387 0.183945 0)
(21.2341 0.174496 0)
(21.1396 0.167014 0)
(21.0537 0.161159 0)
(20.9749 0.156349 0)
(20.9021 0.152293 0)
(20.8343 0.1487 0)
(20.7707 0.145355 0)
(20.7109 0.142068 0)
(20.6542 0.138658 0)
(20.6005 0.134958 0)
(20.5492 0.130805 0)
(20.5002 0.126039 0)
(20.4533 0.120498 0)
(20.4083 0.114025 0)
(20.3654 0.106477 0)
(20.3244 0.0977415 0)
(20.2856 0.0877465 0)
(20.2489 0.0764749 0)
(20.2146 0.0639863 0)
(20.183 0.0504405 0)
(20.1541 0.0360952 0)
(20.1282 0.0213097 0)
(20.1053 0.00651915 0)
(20.0852 -0.00775858 0)
(20.068 -0.0204798 0)
(20.0532 -0.0306348 0)
(20.0401 -0.0377445 0)
(20.0286 -0.0413593 0)
(20.0186 -0.0409671 0)
(20.0102 -0.0360016 0)
(20.0038 -0.0258858 0)
(20.0002 -0.0101185 0)
(21.6603 0.260024 0)
(21.5828 0.301436 0)
(21.174 0.34789 0)
(20.1779 0.274537 0)
(18.3116 0.147302 0)
(15.5279 0.0937098 0)
(12.32 0.105203 0)
(9.43874 0.214549 0)
(6.63637 0.29647 0)
(-0.630585 1.14246 0)
(-1.95418 0.602916 0)
(-2.11924 -0.607934 0)
(-2.43019 -0.932788 0)
(-2.00054 -0.462902 0)
(-0.724299 -0.0573546 0)
(0.948732 0.157211 0)
(2.7808 0.330276 0)
(4.66975 0.513277 0)
(21.5878 0.230341 0)
(21.4744 0.206239 0)
(21.3598 0.189317 0)
(21.2551 0.176219 0)
(21.1605 0.1664 0)
(21.0746 0.15864 0)
(20.9958 0.152432 0)
(20.923 0.147276 0)
(20.8552 0.142845 0)
(20.7918 0.138862 0)
(20.732 0.135107 0)
(20.6754 0.13138 0)
(20.6217 0.127498 0)
(20.5706 0.123291 0)
(20.5218 0.118591 0)
(20.475 0.113245 0)
(20.4303 0.10709 0)
(20.3874 0.099986 0)
(20.3466 0.0918048 0)
(20.3077 0.0824562 0)
(20.2709 0.0718971 0)
(20.2364 0.0601438 0)
(20.2044 0.04729 0)
(20.1749 0.0335212 0)
(20.1482 0.0191139 0)
(20.1243 0.00441941 0)
(20.1033 -0.0101308 0)
(20.085 -0.0235426 0)
(20.0691 -0.0348185 0)
(20.0548 -0.0435031 0)
(20.0421 -0.0491696 0)
(20.0305 -0.0513076 0)
(20.0202 -0.0493081 0)
(20.0112 -0.0424844 0)
(20.0042 -0.0301408 0)
(20.0002 -0.0116715 0)
(21.6133 0.251843 0)
(21.6825 0.290456 0)
(21.6023 0.336803 0)
(21.1705 0.303921 0)
(20.0639 0.207755 0)
(18.0615 0.163425 0)
(15.2503 0.153899 0)
(12.2468 0.236886 0)
(9.24726 0.354512 0)
(6.49503 0.47002 0)
(-0.69652 0.686304 0)
(-2.36382 0.210546 0)
(-2.97449 -0.934958 0)
(-3.46875 -1.1234 0)
(-2.87027 -0.45167 0)
(-1.54634 0.0855054 0)
(0.032862 0.352881 0)
(1.82475 0.527964 0)
(3.6164 0.683969 0)
(5.33036 0.863129 0)
(21.4983 0.221303 0)
(21.3827 0.198045 0)
(21.2771 0.180954 0)
(21.1822 0.16785 0)
(21.096 0.157764 0)
(21.0172 0.149733 0)
(20.9443 0.1432 0)
(20.8765 0.1377 0)
(20.8129 0.132906 0)
(20.7532 0.12854 0)
(20.6966 0.124374 0)
(20.643 0.120206 0)
(20.5919 0.115851 0)
(20.5432 0.111136 0)
(20.4966 0.105892 0)
(20.4519 0.0999665 0)
(20.4092 0.0932094 0)
(20.3685 0.0854889 0)
(20.3296 0.0766962 0)
(20.2928 0.0667659 0)
(20.2581 0.0556796 0)
(20.2258 0.0434807 0)
(20.1958 0.0302913 0)
(20.1686 0.0163135 0)
(20.144 0.00182161 0)
(20.1221 -0.0128335 0)
(20.1029 -0.0267155 0)
(20.0861 -0.0388534 0)
(20.0711 -0.0488314 0)
(20.0574 -0.0562683 0)
(20.0447 -0.0606919 0)
(20.0329 -0.0615118 0)
(20.022 -0.0580048 0)
(20.0124 -0.0493509 0)
(20.0047 -0.0347097 0)
(20.0003 -0.013358 0)
(21.5276 0.240667 0)
(21.6456 0.276548 0)
(21.7186 0.319828 0)
(21.6289 0.315033 0)
(21.1127 0.252256 0)
(19.8791 0.222587 0)
(17.7918 0.223953 0)
(15.0634 0.2728 0)
(12.0927 0.413329 0)
(8.94736 0.513472 0)
(6.62467 0.728481 0)
(-0.658694 0.21449 0)
(-2.46166 -0.197357 0)
(-3.38634 -1.18139 0)
(-3.84679 -1.12602 0)
(-2.88375 -0.206284 0)
(-1.5597 0.41856 0)
(-0.171863 0.712755 0)
(1.54559 0.886047 0)
(3.28353 0.995774 0)
(4.85531 1.12163 0)
(6.34381 1.25952 0)
(21.4085 0.211187 0)
(21.3012 0.188876 0)
(21.2051 0.171916 0)
(21.1184 0.15882 0)
(21.0391 0.148532 0)
(20.9661 0.140252 0)
(20.8981 0.13342 0)
(20.8344 0.127595 0)
(20.7745 0.122447 0)
(20.718 0.117703 0)
(20.6643 0.113135 0)
(20.6132 0.108528 0)
(20.5645 0.1037 0)
(20.518 0.0984777 0)
(20.4734 0.0926954 0)
(20.4308 0.0862015 0)
(20.3901 0.0788537 0)
(20.3513 0.0705341 0)
(20.3144 0.0611556 0)
(20.2797 0.0506714 0)
(20.2471 0.0390872 0)
(20.2169 0.0264688 0)
(20.1891 0.0129563 0)
(20.1639 -0.00124829 0)
(20.1414 -0.0158671 0)
(20.1216 -0.0300227 0)
(20.1041 -0.0427811 0)
(20.0884 -0.0537734 0)
(20.0741 -0.062673 0)
(20.0608 -0.0690697 0)
(20.048 -0.072435 0)
(20.0359 -0.072083 0)
(20.0243 -0.0671639 0)
(20.0138 -0.0566926 0)
(20.0054 -0.0396595 0)
(20.0003 -0.0152053 0)
(21.4393 0.228209 0)
(21.5634 0.26159 0)
(21.6879 0.300893 0)
(21.7612 0.313291 0)
(21.6167 0.279735 0)
(20.9947 0.266058 0)
(19.6737 0.28888 0)
(17.5553 0.32675 0)
(14.9194 0.463005 0)
(11.7906 0.593941 0)
(8.7301 0.709882 0)
(7.11637 1.04083 0)
(-0.531423 -0.212937 0)
(-2.24292 -0.55276 0)
(-3.31698 -1.29658 0)
(-3.55613 -0.904869 0)
(-2.16905 0.263134 0)
(-0.973171 0.908504 0)
(0.208289 1.19012 0)
(1.75649 1.37423 0)
(3.48944 1.43978 0)
(5.01485 1.49316 0)
(6.32626 1.57296 0)
(7.60315 1.63653 0)
(21.3281 0.200338 0)
(21.23 0.178882 0)
(21.1421 0.162181 0)
(21.0621 0.149099 0)
(20.9886 0.138668 0)
(20.9202 0.130166 0)
(20.8564 0.123058 0)
(20.7963 0.116928 0)
(20.7396 0.111446 0)
(20.6859 0.106336 0)
(20.6347 0.101366 0)
(20.5859 0.0963292 0)
(20.5394 0.0910356 0)
(20.4949 0.0853107 0)
(20.4523 0.0789977 0)
(20.4116 0.071944 0)
(20.3728 0.0640202 0)
(20.3359 0.0551241 0)
(20.3011 0.0451825 0)
(20.2683 0.0341692 0)
(20.2378 0.0221079 0)
(20.2097 0.00908259 0)
(20.1842 -0.00476783 0)
(20.1612 -0.0192328 0)
(20.1409 -0.0334914 0)
(20.1228 -0.0466514 0)
(20.1067 -0.058393 0)
(20.0919 -0.0684482 0)
(20.0783 -0.076474 0)
(20.065 -0.0820263 0)
(20.0522 -0.0845093 0)
(20.0395 -0.0831339 0)
(20.0271 -0.0768934 0)
(20.0156 -0.064608 0)
(20.0061 -0.0450657 0)
(20.0003 -0.0172442 0)
(21.3595 0.21511 0)
(21.4759 0.246369 0)
(21.6067 0.282135 0)
(21.7358 0.303957 0)
(21.7783 0.292982 0)
(21.5561 0.293967 0)
(20.86 0.334884 0)
(19.4713 0.386682 0)
(17.4002 0.50183 0)
(14.7056 0.673598 0)
(11.4399 0.769297 0)
(8.76589 0.935712 0)
(7.95948 1.35451 0)
(-0.334929 -0.53384 0)
(-1.75238 -0.815226 0)
(-2.81884 -1.27139 0)
(-2.74592 -0.48302 0)
(-1.10902 0.873939 0)
(-0.145817 1.48874 0)
(1.01812 1.72828 0)
(2.28682 1.93709 0)
(3.96741 1.97857 0)
(5.55595 1.96138 0)
(6.81644 1.96119 0)
(7.87674 1.97582 0)
(8.9989 1.93751 0)
(21.2579 0.188805 0)
(21.1679 0.168104 0)
(21.0867 0.1517 0)
(21.0123 0.138666 0)
(20.9434 0.128131 0)
(20.8791 0.119441 0)
(20.8187 0.112091 0)
(20.7617 0.10568 0)
(20.7077 0.0998755 0)
(20.6564 0.0944138 0)
(20.6075 0.0890565 0)
(20.5608 0.0835982 0)
(20.5163 0.0778478 0)
(20.4737 0.0716309 0)
(20.433 0.0647944 0)
(20.3942 0.0571981 0)
(20.3573 0.0487138 0)
(20.3223 0.0392604 0)
(20.2895 0.0287756 0)
(20.2588 0.0172519 0)
(20.2305 0.00472473 0)
(20.2045 -0.0087202 0)
(20.1811 -0.0229351 0)
(20.1605 -0.0371508 0)
(20.1421 -0.0505185 0)
(20.1257 -0.0627684 0)
(20.1107 -0.0736868 0)
(20.0967 -0.0829984 0)
(20.0834 -0.0903446 0)
(20.0704 -0.0952408 0)
(20.0572 -0.0970213 0)
(20.0438 -0.0947735 0)
(20.0303 -0.0873059 0)
(20.0177 -0.0732065 0)
(20.007 -0.0510145 0)
(20.0004 -0.0195102 0)
(21.2899 0.201501 0)
(21.3962 0.231005 0)
(21.5183 0.264147 0)
(21.6545 0.290769 0)
(21.7682 0.296009 0)
(21.7592 0.308625 0)
(21.4808 0.361222 0)
(20.7307 0.434623 0)
(19.3167 0.535367 0)
(17.2935 0.724384 0)
(14.3984 0.858744 0)
(11.1956 0.934741 0)
(9.14326 1.16316 0)
(9.07622 1.61756 0)
(-0.0963869 -0.7046 0)
(-1.07304 -0.964529 0)
(-2.00665 -1.11255 0)
(-1.5848 0.0653297 0)