/*--------------------------------*- C++ -*----------------------------------*\
| =========                 |                                                 |
| \\      /  F ield         | OpenFOAM: The Open Source CFD Toolbox           |
|  \\    /   O peration     | Version:  2412                                  |
|   \\  /    A nd           | Website:  www.openfoam.com                      |
|    \\/     M anipulation  |                                                 |
\*---------------------------------------------------------------------------*/
FoamFile
{
    version     2.0;
    format      ascii;
    arch        "LSB;label=32;scalar=64";
    class       volScalarField;
    location    "0.05";
    object      dpdt;
}
// * * * * * * * * * * * * * * * * * * * * * * * * * * * * * * * * * * * * * //

dimensions      [1 -1 -3 0 0 0 0];

internalField   nonuniform List<scalar> 
12008
(
82035.16851
82035.16913
82035.1699
82035.1699
82035.16875
82035.16639
82035.16288
82035.1582
82035.15229
82035.14508
82035.1365
82035.12644
82035.11477
82035.10132
82035.08592
82035.06835
82035.04838
82035.02574
82035.00014
82034.97123
82034.93866
82034.90207
82034.86104
82034.81516
82034.76404
82034.7073
82034.64463
82034.57584
82034.50084
82034.41978
82034.33303
82034.24131
82034.14564
82034.04748
82033.94864
82033.85131
82033.75789
82033.67094
82033.59306
82033.52677
82033.4744
82033.43796
82033.41903
82033.41869
82033.43736
82033.47485
82033.53034
82033.60254
82033.68977
82033.79011
82033.90159
82034.02215
82034.14982
82034.28274
82034.41926
82034.55791
82034.69745
82034.83683
82034.97517
82035.11178
82035.24613
82035.37782
82035.50654
82035.63206
82035.75425
82035.87306
82035.98846
82036.10047
82036.20913
82036.3145
82036.41669
82036.51578
82036.61187
82036.70506
82036.79543
82036.88305
82036.96802
82037.05051
82037.13074
82037.20884
82037.28488
82037.35892
82037.43103
82037.50126
82037.56961
82037.63609
82037.70063
82037.76317
82037.82356
82037.88165
82037.93721
82037.99002
82038.03977
82038.08618
82038.12891
82038.16762
82038.20208
82038.2321
82038.25756
82038.27841
82038.29466
82038.30648
82038.31413
82038.318
82038.31862
82038.31659
82038.3126
82038.30737
82038.30165
82038.29615
82038.29153
82038.28838
82038.28718
82038.2883
82038.292
82038.29836
82038.30741
82038.31915
82038.33346
82038.35014
82038.36893
82038.38952
82038.41157
82038.43474
82038.45867
82038.48302
82038.50745
82038.53164
82038.55528
82038.5781
82038.59984
82038.62025
82038.63914
82038.65634
82038.67172
82038.68518
82038.69662
82038.70606
82038.71339
82038.71803
82035.16474
82035.16537
82035.16588
82035.16564
82035.16432
82035.16185
82035.15823
82035.15344
82035.14741
82035.14009
82035.13138
82035.12122
82035.10945
82035.09591
82035.08046
82035.06289
82035.04297
82035.02046
82034.99506
82034.96647
82034.93435
82034.89833
82034.85803
82034.81304
82034.76297
82034.70744
82034.64613
82034.57881
82034.50537
82034.42587
82034.34063
82034.25026
82034.15571
82034.05829
82033.95977
82033.86229
82033.76823
82033.68015
82033.60068
82033.5324
82033.47774
82033.43882
82033.41736
82033.4146
82033.43114
82033.46688
82033.52105
82033.59237
82033.67911
82033.77932
82033.89099
82034.01201
82034.14027
82034.27389
82034.41117
82034.5506
82034.69091
82034.83102
82034.97005
82035.1073
82035.24224
82035.37445
82035.50363
82035.62956
82035.75209
82035.87121
82035.98686
82036.09908
82036.20791
82036.31341
82036.41569
82036.51483
82036.61094
82036.70413
82036.79449
82036.88204
82036.96687
82037.04925
82037.12942
82037.20746
82037.28342
82037.35737
82037.42939
82037.49951
82037.56775
82037.63409
82037.69849
82037.76085
82037.82105
82037.87892
82037.93424
82037.98678
82038.03625
82038.08237
82038.12479
82038.16312
82038.19716
82038.22683
82038.25194
82038.27244
82038.28838
82038.29991
82038.30733
82038.31103
82038.31155
82038.3095
82038.30558
82038.30051
82038.29503
82038.28985
82038.28563
82038.28293
82038.28224
82038.28391
82038.28819
82038.29511
82038.30468
82038.31693
82038.33174
82038.34889
82038.36811
82038.38909
82038.41149
82038.43497
82038.45917
82038.48375
82038.50839
82038.53275
82038.55654
82038.57948
82038.60131
82038.6218
82038.64074
82038.65799
82038.67339
82038.68676
82038.69794
82038.70681
82038.71362
82038.71824
82035.1596
82035.16055
82035.16102
82035.16062
82035.1592
82035.15666
82035.15297
82035.1481
82035.14202
82035.13464
82035.12589
82035.11569
82035.10392
82035.09043
82035.07508
82035.05768
82035.03801
82035.01584
82034.99092
82034.96293
82034.93155
82034.89644
82034.8572
82034.81345
82034.76477
82034.71076
82034.65104
82034.58535
82034.51348
82034.43537
82034.3512
82034.26149
82034.16698
82034.06886
82033.96883
82033.86907
82033.77203
82033.68035
82033.59687
82033.52433
82033.4653
82033.42214
82033.3968
82033.39082
82033.40509
82033.43955
82033.49338
82033.5652
82033.65317
82033.75515
82033.86892
82033.99221
82034.12282
82034.25876
82034.39823
82034.53969
82034.68183
82034.82355
82034.96399
82035.10245
82035.2384
82035.37145
82035.50132
82035.6278
82035.75079
82035.87025
82035.98617
82036.09857
82036.20752
82036.31309
82036.41537
82036.51447
82036.6105
82036.70357
82036.7938
82036.8813
82036.96589
82037.04787
82037.12786
82037.20579
82037.28159
82037.35539
82037.42727
82037.49726
82037.56539
82037.63163
82037.69593
82037.75821
82037.81834
82037.87615
82037.93141
82037.98389
82038.0333
82038.07936
82038.12161
82038.1597
82038.19353
82038.2229
82038.24766
82038.26772
82038.28315
82038.29412
82038.30092
82038.30398
82038.30385
82038.30117
82038.29668
82038.29113
82038.28529
82038.27988
82038.27557
82038.27294
82038.27246
82038.27451
82038.2793
82038.28675
82038.29691
82038.30985
82038.32539
82038.34328
82038.36324
82038.38493
82038.40803
82038.43216
82038.45697
82038.4821
82038.50724
82038.53206
82038.55626
82038.57955
82038.60169
82038.62243
82038.64159
82038.65899
82038.67452
82038.68801
82038.69923
82038.70802
82038.71459
82038.71909
82035.1536
82035.15496
82035.15555
82035.15511
82035.15364
82035.15107
82035.14736
82035.14248
82035.13641
82035.12906
82035.12038
82035.11028
82035.09866
82035.08538
82035.07032
82035.0533
82035.03413
82035.01258
82034.98842
82034.96135
82034.93107
82034.89721
82034.8594
82034.81724
82034.77029
82034.71809
82034.66018
82034.59624
82034.52593
82034.44891
82034.36516
82034.27503
82034.17918
82034.07862
82033.97495
82033.87046
82033.7678
82033.66972
82033.57939
82033.49996
82033.43419
82033.38485
82033.35436
82033.3446
82033.35664
82033.39051
82033.44531
82033.51944
82033.61075
82033.71676
82033.83492
82033.9627
82034.09769
82034.23776
82034.38101
82034.52584
82034.67091
82034.81515
82034.9577
82035.09791
82035.23528
82035.36946
82035.5002
82035.62735
82035.75084
82035.87066
82035.98681
82036.09935
82036.20834
82036.31387
82036.41606
82036.51501
82036.61084
82036.70367
82036.79363
82036.88087
82036.96523
82037.04672
82037.12627
82037.20401
82037.27957
82037.35315
82037.42483
82037.49466
82037.56266
82037.62883
82037.69311
82037.75541
82037.81562
82037.87354
82037.92897
82037.98163
82038.03125
82038.07756
82038.11987
82038.15791
82038.19171
82038.2209
82038.24532
82038.26488
82038.27963
82038.28972
82038.29548
82038.29735
82038.29593
82038.29193
82038.28612
82038.27934
82038.2724
82038.26609
82038.26111
82038.25806
82038.25742
82038.25961
82038.26476
82038.27269
82038.28354
82038.29731
82038.31379
82038.33269
82038.35369
82038.37644
82038.40057
82038.4257
82038.45147
82038.4775
82038.50346
82038.52904
82038.55392
82038.57783
82038.60051
82038.62172
82038.64126
82038.65896
82038.6747
82038.6884
82038.69985
82038.70885
82038.71555
82038.72
82035.14704
82035.14868
82035.14941
82035.14897
82035.14749
82035.14492
82035.14123
82035.13641
82035.1304
82035.12317
82035.11464
82035.10474
82035.09339
82035.08047
82035.06586
82035.0494
82035.03093
82035.01024
82034.9871
82034.96125
82034.93237
82034.90012
82034.86412
82034.82396
82034.77915
82034.72918
82034.67348
82034.61147
82034.54274
82034.46678
82034.38331
82034.29229
82034.19416
82034.08957
82033.98003
82033.86817
82033.75702
82033.6498
82033.54992
82033.46074
82033.38555
82033.32766
82033.29017
82033.27555
82033.28517
82033.31912
82033.3763
82033.4547
82033.55165
82033.6641
82033.78903
82033.92357
82034.06502
82034.21104
82034.35965
82034.50919
82034.6583
82034.80591
82034.95124
82035.0937
82035.23287
82035.36844
82035.50021
82035.62813
82035.75218
82035.87235
82035.98869
82036.10129
82036.21024
82036.31564
82036.41762
82036.51629
82036.6118
82036.70426
82036.79383
82036.88064
82036.96455
82037.04553
82037.12456
82037.20197
82037.27719
82037.35045
82037.42187
82037.4915
82037.55936
82037.62547
82037.68978
82037.7522
82037.8126
82037.87081
82037.92659
82037.97966
82038.02972
82038.07648
82038.11916
82038.15741
82038.19127
82038.22037
82038.24447
82038.26345
82038.27732
82038.28622
82038.29049
82038.29063
82038.28728
82038.28124
82038.27338
82038.26462
82038.25589
82038.24804
82038.24185
82038.23794
82038.23683
82038.23898
82038.24443
82038.25289
82038.26456
82038.27938
82038.29707
82038.31728
82038.33967
82038.36383
82038.38937
82038.41587
82038.44293
82038.4702
82038.49732
82038.52395
82038.54979
82038.57456
82038.598
82038.61988
82038.64001
82038.65819
82038.67428
82038.68821
82038.6999
82038.70916
82038.71605
82038.72057
82035.14005
82035.14181
82035.14262
82035.14222
82035.14076
82035.13823
82035.13461
82035.12988
82035.12401
82035.11695
82035.10865
82035.09905
82035.08807
82035.07563
82035.06161
82035.04588
82035.02829
82035.00866
82034.98677
82034.96241
82034.93522
82034.9049
82034.87104
82034.83338
82034.79115
82034.74364
82034.69041
82034.63098
82034.56456
82034.49
82034.40663
82034.31428
82034.21284
82034.10271
82033.9853
82033.86338
82033.74071
82033.62115
82033.50852
82033.4065
82033.31883
82033.24953
82033.20272
82033.18183
82033.18876
82033.22367
82033.28499
82033.37001
82033.47521
82033.59678
82033.73119
82033.87505
82034.02526
82034.17922
82034.33486
82034.49045
82034.64463
82034.79643
82034.94515
82035.09032
82035.23157
82035.36872
82035.50165
82035.63039
82035.75499
82035.87547
82035.99193
82036.1045
82036.21329
82036.31844
82036.42008
82036.51834
82036.61337
82036.70532
82036.79436
82036.88066
82036.96368
82037.04404
82037.12271
82037.19958
82037.27431
82037.34716
82037.41824
82037.4876
82037.55531
82037.62137
82037.68575
82037.74837
82037.8091
82037.86775
82037.92409
82037.9778
82038.02856
82038.07606
82038.11934
82038.15799
82038.19212
82038.22126
82038.2451
82038.26344
82038.27624
82038.28363
82038.28596
82038.28377
82038.2778
82038.26894
82038.25821
82038.24667
82038.23539
82038.22533
82038.21737
82038.21219
82038.21032
82038.21227
82038.21799
82038.22708
82038.23976
82038.25589
82038.2751
82038.297
82038.32115
82038.34712
82038.37446
82038.40271
82038.43145
82038.4603
82038.4889
82038.5169
82038.54398
82038.56985
82038.59426
82038.617
82038.63788
82038.65671
82038.67332
82038.68761
82038.69955
82038.70903
82038.7161
82038.72069
82035.13263
82035.13439
82035.13523
82035.13487
82035.13345
82035.131
82035.12748
82035.12289
82035.11719
82035.11036
82035.10236
82035.09313
82035.08262
82035.07075
82035.05744
82035.04257
82035.026
82035.00757
82034.98712
82034.96455
82034.9393
82034.91114
82034.87962
82034.84477
82034.80589
82034.76167
82034.71169
82034.65527
82034.59138
82034.51868
82034.43594
82034.34229
82034.23703
82034.12003
82033.99241
82033.85728
82033.71968
82033.58433
82033.45552
82033.33719
82033.23339
82033.14905
82033.08985
82033.06079
82033.0647
82033.10169
82033.16914
82033.26323
82033.37981
82033.51421
82033.66164
82033.81789
82033.9795
82034.1436
82034.30789
82034.47071
82034.63085
82034.78751
82034.94014
82035.08834
82035.2319
82035.3707
82035.50484
82035.63442
82035.75949
82035.88019
82035.99667
82036.10908
82036.21757
82036.32231
82036.42345
82036.52114
82036.61554
82036.7068
82036.79512
82036.88067
82036.96271
82037.04227
82037.12048
82037.19663
82037.27074
82037.34306
82037.41369
82037.48273
82037.55024
82037.61625
82037.68073
82037.74363
82037.8048
82037.86407
82037.92117
82037.97577
82038.02751
82038.07601
82038.12014
82038.15947
82038.19413
82038.22351
82038.24719
82038.26487
82038.27643
82038.282
82038.28189
82038.27673
82038.26736
82038.25482
82038.24031
82038.22509
82038.21042
82038.19743
82038.18711
82038.18023
82038.17732
82038.17897
82038.185
82038.1949
82038.20884
82038.22661
82038.24774
82038.27173
82038.29809
82038.3263
82038.35588
82038.38629
82038.4171
82038.44791
82038.47833
82038.50799
82038.53659
82038.56383
82038.58945
82038.61322
82038.63499
82038.65459
82038.67186
82038.68667
82038.69895
82038.70865
82038.71586
82038.72049
82035.12471
82035.12643
82035.12725
82035.12691
82035.12556
82035.12319
82035.1198
82035.11538
82035.1099
82035.10335
82035.09569
82035.08689
82035.0769
82035.06567
82035.05316
82035.03925
82035.02381
82035.00665
82034.98762
82034.96692
82034.94403
82034.91848
82034.89018
82034.85838
82034.82277
82034.78245
82034.73654
82034.68406
82034.62365
82034.55366
82034.47228
82034.37778
82034.26866
82034.14379
82034.0035
82033.85134
82033.69478
82033.53988
82033.39131
82033.25295
82033.12877
82033.02462
82032.9487
82032.90881
82032.90917
82032.94919
82033.02553
82033.1332
82033.26585
82033.41716
82033.58124
82033.75308
82033.92869
82034.10496
82034.27959
82034.45099
82034.61814
82034.78035
82034.93719
82035.08853
82035.2344
82035.37492
82035.51025
82035.64053
82035.76596
82035.88672
82036.00306
82036.11514
82036.22317
82036.32732
82036.42778
82036.52471
82036.61828
82036.70867
82036.79607
82036.88034
82036.9615
82037.04026
82037.11763
82037.19288
82037.26621
82037.33784
82037.4079
82037.47652
82037.54377
82037.60971
82037.67433
82037.73757
82037.79931
82037.85935
82037.91743
82037.97319
82038.02621
82038.07596
82038.12121
82038.16158
82038.19712
82038.22703
82038.25072
82038.26778
82038.278
82038.2814
82038.27835
82038.2695
82038.25585
82038.23863
82038.21929
82038.19937
82038.18036
82038.16363
82038.15033
82038.14131
82038.13715
82038.13844
82038.14486
82038.15585
82038.17142
82038.19127
82038.21478
82038.24137
82038.27044
82038.3014
82038.33367
82038.3667
82038.4
82038.43315
82038.46573
82038.49738
82038.52778
82038.55663
82038.58368
82038.60871
82038.63152
82038.652
82038.67001
82038.68543
82038.69815
82038.70813
82038.71548
82038.72014
82035.11617
82035.11785
82035.11865
82035.11833
82035.11704
82035.11477
82035.11153
82035.10729
82035.10205
82035.0958
82035.08852
82035.08018
82035.07075
82035.06016
82035.04845
82035.03556
82035.02138
82035.00564
82034.98835
82034.96949
82034.9493
82034.92664
82034.90114
82034.87288
82034.84123
82034.80536
82034.76427
82034.71672
82034.66105
82034.59515
82034.51647
82034.42229
82034.31002
82034.17687
82034.02141
82033.84714
82033.66672
82033.48828
82033.3165
82033.15447
82033.00501
82032.87456
82032.77557
82032.72102
82032.7169
82032.76204
82032.85167
82032.97812
82033.13237
82033.30585
82033.49116
82033.68235
82033.87488
82034.06551
82034.25202
82034.43303
82034.60775
82034.7758
82034.93707
82035.0917
82035.23991
82035.382
82035.51828
82035.64906
82035.77463
82035.89527
82036.01125
82036.1228
82036.23016
82036.33353
82036.43311
82036.52908
82036.62163
82036.71095
82036.79705
82036.87974
82036.95967
82037.03785
82037.11397
82037.18807
82037.2604
82037.33114
82037.40047
82037.46854
82037.53545
82037.60129
82037.66605
82037.7297
82037.79211
82037.85309
82037.91238
82037.96961
82038.02435
82038.07545
82038.12196
82038.16399
82038.20089
82038.23171
82038.2557
82038.27227
82038.28105
82038.28201
82038.27544
82038.26211
82038.24314
82038.22007
82038.19467
82038.16883
82038.14439
82038.12302
82038.10606
82038.09448
82038.0889
82038.08986
82038.09682
82038.10937
82038.12706
82038.14951
82038.176
82038.20578
82038.23815
82038.27242
82038.30793
82038.34406
82038.38029
82038.41618
82038.4513
82038.48526
82038.51774
82038.54844
82038.57713
82038.60359
82038.62763
82038.64912
82038.66796
82038.68403
82038.69726
82038.70757
82038.71508
82038.71976
82035.10696
82035.10859
82035.10939
82035.10911
82035.10787
82035.10571
82035.10262
82035.09857
82035.09358
82035.08764
82035.08073
82035.07286
82035.064
82035.05413
82035.04329
82035.03134
82035.01845
82035.00409
82034.98869
82034.97231
82034.95397
82034.93384
82034.91169
82034.88725
82034.85998
82034.82914
82034.79368
82034.75218
82034.70274
82034.64273
82034.5688
82034.47698
82034.36336
82034.22266
82034.0499
82033.84583
82033.63513
82033.42923
82033.23167
82033.04325
82032.8633
82032.69755
82032.56609
82032.4912
82032.481
82032.5341
82032.64332
82032.7961
82032.97936
82033.1816
82033.39355
82033.60822
82033.8207
82034.02777
82034.22749
82034.41885
82034.6015
82034.77547
82034.94108
82035.09877
82035.24904
82035.3924
82035.52935
82035.66034
82035.78578
82035.90601
82036.0214
82036.13219
82036.23865
82036.34101
82036.43948
82036.53425
82036.62558
82036.71371
82036.79767
82036.8788
82036.95768
82037.0345
82037.10912
82037.18183
82037.25289
82037.32252
82037.39094
82037.45831
82037.5248
82037.59048
82037.65539
82037.7195
82037.78268
82037.84477
82037.90549
82037.96455
82038.02171
82038.07391
82038.1217
82038.16638
82038.20529
82038.23752
82038.2622
82038.2785
82038.28585
82038.28406
82038.27338
82038.25462
82038.22914
82038.19881
82038.16585
82038.13263
82038.10147
82038.07441
82038.05306
82038.03853
82038.03144
82038.0321
82038.04004
82038.05483
82038.07525
82038.10098
82038.13116
82038.16485
82038.2012
82038.23942
82038.27875
82038.31851
82038.35816
82038.39723
82038.43525
82038.47185
82038.50668
82038.53948
82038.57001
82038.59807
82038.62349
82038.64612
82038.66588
82038.68268
82038.69646
82038.70713
82038.71482
82038.71952
82035.09705
82035.09863
82035.09942
82035.09918
82035.09802
82035.09597
82035.09302
82035.08917
82035.08442
82035.07877
82035.07223
82035.06483
82035.05653
82035.04728
82035.0373
82035.02609
82035.01408
82035.002
82034.98824
82034.97302
82034.95685
82034.93943
82034.92057
82034.9
82034.87733
82034.85189
82034.82271
82034.78833
82034.74668
82034.69472
82034.62825
82034.54187
82034.43018
82034.28457
82034.09289
82033.84747
82033.59609
82033.3604
82033.13728
82032.92311
82032.70843
82032.49532
82032.31684
82032.20967
82032.18974
82032.25715
82032.39595
82032.58582
82032.80795
82033.04708
82033.29185
82033.53441
82033.76974
82033.995
82034.20882
82034.41085
82034.60136
82034.78097
82034.95048
82035.11073
82035.26254
82035.4067
82035.54388
82035.67468
82035.79962
82035.91913
82036.03364
82036.14338
82036.24869
82036.3498
82036.44692
82036.54022
82036.62992
82036.71623
82036.79865
82036.87755
82036.95498
82037.02997
82037.10277
82037.17378
82037.24327
82037.31154
82037.37885
82037.4454
82037.51137
82037.57686
82037.64194
82037.70656
82037.77062
82037.83395
82037.89623
82037.95709
82038.01621
82038.07105
82038.1218
82038.16903
82038.21034
82038.24458
82038.27046
82038.28683
82038.29283
82038.28801
82038.27253
82038.24725
82038.21378
82038.17443
82038.13204
82038.08965
82038.05022
82038.01627
82037.98976
82037.97192
82037.96332
82037.96396
82037.97369
82037.99133
82038.01536
82038.04528
82038.08002
82038.11847
82038.15961
82038.20251
82038.24631
82038.29028
82038.33386
82038.37653
82038.41784
82038.45739
82038.49487
82038.53
82038.56256
82038.59238
82038.6193
82038.64319
82038.66397
82038.68157
82038.69593
82038.70699
82038.71488
82038.7196
82035.08639
82035.08791
82035.08866
82035.08846
82035.08739
82035.08544
82035.08264
82035.07897
82035.07445
82035.06906
82035.06281
82035.05584
82035.04809
82035.03915
82035.02954
82035.02005
82035.00916
82034.99719
82034.98474
82034.97135
82034.95716
82034.9421
82034.92613
82034.90912
82034.89082
82034.87076
82034.84813
82034.82158
82034.78906
82034.74732
82034.69151
82034.61449
82034.51013
82034.36642
82034.1545
82033.85335
82033.54349
82033.28155
82033.04004
82032.80859
82032.55805
82032.27669
82032.01592
82031.85609
82031.82764
82031.92076
82032.10483
82032.34727
82032.62124
82032.90705
82033.19144
82033.46619
82033.72681
82033.97134
82034.19946
82034.41182
82034.60953
82034.79398
82034.96654
82035.12853
82035.28115
82035.42542
82035.56223
82035.69234
82035.81635
82035.93476
82036.04803
82036.15645
82036.26034
82036.35994
82036.45547
82036.5471
82036.63476
82036.7185
82036.7988
82036.87628
82036.95131
82037.02395
82037.09455
82037.16349
82037.23113
82037.29782
82037.36387
82037.4295
82037.49492
82037.56023
82037.6255
82037.69071
82037.75574
82037.82043
82037.88442
82037.94732
82038.00866
82038.06679
82038.12129
82038.17174
82038.21625
82038.25322
82038.28096
82038.29789
82038.30271
82038.29462
82038.27355
82038.24039
82038.19705
82038.14646
82038.09227
82038.03846
82037.98885
82037.94663
82037.91413
82037.8927
82037.88282
82037.88419
82037.8966
82037.91779
82037.94675
82037.98199
82038.0224
82038.06661
82038.11344
82038.16185
82038.21084
82038.25965
82038.30768
82038.35442
82038.39939
82038.44221
82038.4826
82038.52029
82038.55507
82038.58679
82038.61532
82038.64056
82038.66244
82038.68089
82038.69588
82038.70736
82038.71544
82038.72019
82035.07497
82035.0764
82035.07708
82035.07686
82035.07589
82035.07406
82035.07138
82035.06788
82035.06357
82035.05842
82035.05229
82035.04525
82035.03779
82035.03007
82035.02112
82035.0113
82035.00112
82034.99014
82034.97857
82034.96631
82034.95346
82034.94008
82034.92624
82034.91199
82034.8973
82034.88197
82034.86549
82034.84676
82034.82403
82034.79414
82034.75192
82034.68886
82034.59854
82034.46917
82034.25367
82033.89012
82033.47701
82033.19065
82032.93503
82032.70239
82032.41697
82032.03464
82031.64099
82031.40403
82031.37185
82031.51148
82031.76627
82032.08334
82032.4257
82032.76945
82033.1003
82033.41082
82033.69807
82033.96184
82034.20341
82034.42482
82034.62833
82034.81621
82034.99052
82035.15308
82035.30547
82035.44898
82035.5847
82035.71349
82035.83606
82035.95294
82036.06461
82036.17139
82036.27358
82036.37139
82036.46511
82036.55495
82036.63955
82036.72084
82036.79881
82036.87391
82036.94616
82037.01607
82037.08407
82037.15063
82037.21621
82037.28119
82037.34592
82037.41064
82037.47555
82037.54075
82037.6063
82037.67218
82037.73828
82037.80445
82037.87036
82037.93562
82037.99958
82038.06122
82038.11995
82038.17464
82038.22332
82038.26399
82038.29448
82038.31265
82038.31662
82038.30504
82038.27748
82038.23475
82038.17915
82038.11438
82038.04529
82037.97718
82037.91503
82037.86291
82037.82359
82037.79851
82037.78789
82037.79106
82037.80704
82037.83333
82037.86891
82037.91084
82037.95816
82038.00932
82038.06289
82038.11771
82038.17268
82038.22697
82038.28002
82038.33127
82038.38028
82038.42668
82038.47022
82038.51066
82038.54782
82038.58158
82038.61183
82038.6385
82038.66152
82038.68087
82038.69651
82038.70843
82038.71672
82038.72147
82035.06274
82035.06407
82035.06467
82035.06436
82035.06331
82035.06152
82035.05891
82035.05543
82035.05112
82035.04607
82035.0404
82035.03389
82035.02642
82035.01838
82035.00988
82035.00054
82034.99059
82034.97993
82034.96861
82034.95668
82034.94425
82034.93147
82034.91857
82034.9058
82034.8934
82034.88152
82034.87005
82034.85833
82034.84509
82034.82739
82034.80088
82034.756
82034.69203
82034.62339
82034.44025
82033.93503
82033.30293
82033.02786
82032.7981
82032.62944
82032.33717
82031.81092
82031.17895
82030.80983
82030.78419
82031.01538
82031.38104
82031.80275
82032.23337
82032.64675
82033.02978
82033.37786
82033.69119
82033.97237
82034.22506
82034.45307
82034.66005
82034.84926
82035.02349
82035.18508
82035.33595
82035.47764
82035.6114
82035.73818
82035.85874
82035.97364
82036.08333
82036.18815
82036.28834
82036.38404
82036.47547
82036.56274
82036.64531
82036.72291
82036.79821
82036.87018
82036.93922
82037.00598
82037.07106
82037.13506
82037.1985
82037.26181
82037.32534
82037.38929
82037.45384
82037.51906
82037.58501
82037.65166
82037.71889
82037.78662
82037.85456
82037.92232
82037.98916
82038.05476
82038.11845
82038.17828
82038.23215
82038.27764
82038.312
82038.33238
82038.33606
82038.3209
82038.28584
82038.23146
82038.16045
82038.07762
82037.9895
82037.90329
82037.82565
82037.76175
82037.71487
82037.68635
82037.67599
82037.68242
82037.70357
82037.73737
82037.78114
82037.83152
82037.8873
82037.94678
82038.00827
82038.07049
82038.13226
82038.19273
82038.25133
82038.30755
82038.36095
82038.41122
82038.45813
82038.50149
82038.54117
82038.57707
82038.60912
82038.63726
82038.66148
82038.68175
82038.69807
82038.71042
82038.71891
82038.72366
82035.04968
82035.05089
82035.0514
82035.05102
82035.04987
82035.04799
82035.04535
82035.04193
82035.03769
82035.03265
82035.02687
82035.02043
82035.01322
82035.00524
82034.99658
82034.98709
82034.97681
82034.96572
82034.95384
82034.94123
82034.92806
82034.9146
82034.90122
82034.88845
82034.87685
82034.867
82034.85931
82034.85364
82034.84918
82034.84366
82034.83292
82034.80391
82034.751
82034.7912
82034.81235
82033.96441
82032.94717
82032.76622
82032.62222
82032.62175
82032.34997
82031.58671
82030.59023
82029.98789
82030.00938
82030.41587
82030.96114
82031.52495
82032.06463
82032.55744
82032.99521
82033.37922
82033.71501
82034.00933
82034.26885
82034.4996
82034.7067
82034.89442
82035.06624
82035.22496
82035.37278
82035.51144
82035.64227
82035.76628
82035.88424
82035.99669
82036.10405
82036.2066
82036.30454
82036.39792
82036.48669
82036.57062
82036.65014
82036.72514
82036.79667
82036.86482
82036.93017
82036.99347
82037.0555
82037.11697
82037.17845
82037.24036
82037.30298
82037.36647
82037.4309
82037.49631
82037.56278
82037.63029
82037.69858
82037.76781
82037.83776
82037.90803
82037.97796
82038.04795
82038.11723
82038.18306
82038.24324
82038.29489
82038.33459
82038.35855
82038.36293
82038.34438
82038.30078
82038.23217
82038.14161
82038.03544
82037.92268
82037.81337
82037.71653
82037.63876
82037.58377
82037.55259
82037.54416
82037.55604
82037.5851
82037.62895
82037.68267
82037.74389
82037.81002
82037.87937
82037.9501
82038.02078
82038.0902
82038.15752
82038.22222
82038.28381
82038.34193
82038.39631
82038.44678
82038.4932
82038.5355
82038.57361
82038.6075
82038.63716
82038.66258
82038.68379
82038.70078
82038.71357
82038.72224
82038.72697
82035.03576
82035.03683
82035.03723
82035.03681
82035.03565
82035.03372
82035.03103
82035.02756
82035.02328
82035.01821
82035.01234
82035.0057
82034.99822
82034.98986
82034.98062
82034.9704
82034.95916
82034.94684
82034.93346
82034.91911
82034.90405
82034.88871
82034.87375
82034.86001
82034.84849
82034.84025
82034.83631
82034.83701
82034.84233
82034.85041
82034.85739
82034.82922
82034.74224
82034.92634
82035.67211
82034.24153
82033.49849
82032.48455
82032.54155
82032.77861
82032.3796
82031.15636
82029.75769
82028.84795
82029.00002
82029.73499
82030.53644
82031.28393
82031.951
82032.52705
82033.01575
82033.42861
82033.77894
82034.07891
82034.33876
82034.56681
82034.76963
82034.95236
82035.11902
82035.2727
82035.41579
82035.55011
82035.677
82035.79747
82035.91224
82036.02178
82036.12646
82036.22648
82036.32198
82036.41294
82036.49809
82036.57898
82036.65469
82036.7262
82036.79356
82036.85751
82036.91886
82036.97863
82037.03777
82037.09706
82037.15705
82037.21807
82037.28028
82037.34369
82037.40829
82037.47404
82037.54102
82037.60959
82037.67848
82037.74896
82037.82068
82037.89328
82037.96636
82038.04098
82038.11625
82038.18889
82038.25658
82038.31603
82038.36301
82038.39255
82038.3993
82038.37811
82038.32512
82038.2392
82038.12359
82037.98679
82037.84164
82037.70257
82037.58193
82037.48807
82037.42497
82037.39278
82037.389
82037.40966
82037.45023
82037.50691
82037.57333
82037.64834
82037.72688
82037.8078
82037.88912
82037.96936
82038.04729
82038.12211
82038.19339
82038.26072
82038.32382
82038.38251
82038.43666
82038.48624
82038.5312
82038.57155
82038.6073
82038.63848
82038.66511
82038.68724
82038.7049
82038.7181
82038.72694
82038.73163
82035.02094
82035.02186
82035.02213
82035.02163
82035.0204
82035.01844
82035.01568
82035.0121
82035.00768
82035.00238
82034.9962
82034.98911
82034.98104
82034.97193
82034.96167
82034.95015
82034.93725
82034.9229
82034.90714
82034.89019
82034.8725
82034.8548
82034.83815
82034.82389
82034.81361
82034.80908
82034.81219
82034.82439
82034.84722
82034.88156
82034.91606
82034.91337
82034.82862
82034.97182
82037.62444
82035.99605
0
-4.225385981e-08
82032.82858
82033.52067
82033.59328
82031.71891
82029.09518
82026.58991
82027.66254
82029.09958
82030.18652
82031.13253
82031.9336
82032.58778
82033.1133
82033.54006
82033.89157
82034.18607
82034.43741
82034.6559
82034.84919
82035.02294
82035.1814
82035.32774
82035.46436
82035.59301
82035.71499
82035.83118
82035.94222
82036.04846
82036.15017
82036.24739
82036.34016
82036.42797
82036.5105
82036.58682
82036.65878
82036.72594
82036.78868
82036.84811
82036.90544
82036.96196
82037.01875
82037.07658
82037.13585
82037.19669
82037.25908
82037.32286
82037.38784
82037.45389
82037.52125
82037.59109
82037.65945
82037.73065
82037.80362
82037.87801
82037.95405
82038.0334
82038.11473
82038.19482
82038.2713
82038.34049
82038.3973
82038.43536
82038.44724
82038.42523
82038.36256
82038.25572
82038.1077
82037.92994
82037.74144
82037.56372
82037.41375
82037.30185
82037.23168
82037.20158
82037.20672
82037.24082
82037.29738
82037.37037
82037.45404
82037.54571
82037.63885
82037.73309
82037.82643
82037.91729
82038.00451
82038.08741
82038.16568
82038.23904
82038.30731
82038.37041
82038.42832
82038.48107
82038.52871
82038.57128
82038.60887
82038.64154
82038.66935
82038.69237
82038.71066
82038.72425
82038.73324
82038.73786
82035.00519
82035.00593
82035.00605
82035.00541
82035.00407
82035.00197
82034.99907
82034.9953
82034.99061
82034.98495
82034.97828
82034.97053
82034.96159
82034.95133
82034.93958
82034.92617
82034.91097
82034.89395
82034.87529
82034.85544
82034.8352
82034.81577
82034.79875
82034.78613
82034.7802
82034.78362
82034.79941
82034.83085
82034.88344
82034.96064
82035.06204
82035.21434
82035.72323
82037.73212
82039.2659
0
0
0
0
0
0
82034.37314
82031.36332
82026.10435
82025.31127
82028.794
82030.10704
82031.1718
82032.08358
82032.77786
82033.31049
82033.7254
82034.05847
82034.3329
82034.56501
82034.76615
82034.94423
82035.10487
82035.2521
82035.38889
82035.51739
82035.63917
82035.75533
82035.86661
82035.97346
82036.07612
82036.17465
82036.269
82036.3591
82036.44294
82036.52198
82036.59461
82036.66193
82036.7241