/*--------------------------------*- C++ -*----------------------------------*\
| =========                 |                                                 |
| \\      /  F ield         | OpenFOAM: The Open Source CFD Toolbox           |
|  \\    /   O peration     | Version:  2412                                  |
|   \\  /    A nd           | Website:  www.openfoam.com                      |
|    \\/     M anipulation  |                                                 |
\*---------------------------------------------------------------------------*/
FoamFile
{
    version     2.0;
    format      ascii;
    arch        "LSB;label=32;scalar=64";
    class       surfaceVectorField;
    location    "0.05";
    object      rhoUf;
}
// * * * * * * * * * * * * * * * * * * * * * * * * * * * * * * * * * * * * * //

dimensions      [1 -2 -1 0 0 0 0];

internalField   nonuniform List<vector> 
23538
(
(-6.190898698e-06 -4.803909727e-05 0)
(-1.688548942e-05 -7.83090572e-05 0)
(4.650052082e-05 -6.160623423e-05 0)
(2.167061445e-05 -0.0001368151882 0)
(0.0001109999651 -6.246569863e-05 0)
(9.725737884e-05 -0.0001478644187 0)
(0.0001685402091 -6.012073948e-05 0)
(0.0001701730879 -0.0001398152166 0)
(0.0002128160618 -5.696364294e-05 0)
(0.0002229055936 -0.0001250765721 0)
(0.000242594631 -5.370072181e-05 0)
(0.0002515658573 -0.0001087266126 0)
(0.0002580882942 -5.043524715e-05 0)
(0.0002556309414 -9.222714038e-05 0)
(0.0002594071676 -4.704675668e-05 0)
(0.0002351635325 -7.549399077e-05 0)
(0.0002462486027 -4.341670004e-05 0)
(0.0001898608958 -5.812647856e-05 0)
(0.0002180787204 -3.949159113e-05 0)
(0.0001190444627 -3.991146928e-05 0)
(0.0001744160083 -3.527604273e-05 0)
(2.206787046e-05 -2.092692015e-05 0)
(0.0001150562797 -3.081195246e-05 0)
(-0.0001012761184 -1.479620336e-06 0)
(4.021358736e-05 -2.616340766e-05 0)
(-0.000250443451 1.797637597e-05 0)
(-4.940969998e-05 -2.14040316e-05 0)
(-0.0004239970536 3.691588239e-05 0)
(-0.0001526140785 -1.660775441e-05 0)
(-0.0006195817916 5.480303212e-05 0)
(-0.0002677305439 -1.18443024e-05 0)
(-0.0008339281939 7.112818801e-05 0)
(-0.0003926673179 -7.176325543e-06 0)
(-0.001062944291 8.543126662e-05 0)
(-0.0005249811633 -2.655987959e-06 0)
(-0.001301843491 9.732632076e-05 0)
(-0.0006619742697 1.680544813e-06 0)
(-0.001545319234 0.000106527263 0)
(-0.0008008236656 5.81939402e-06 0)
(-0.001787750026 0.0001128806928 0)
(-0.0009387280655 9.770337968e-06 0)
(-0.002023487653 0.0001163863592 0)
(-0.00107306622 1.356668108e-05 0)
(-0.002247125843 0.0001172047016 0)
(-0.001201556987 1.726505322e-05 0)
(-0.002453807504 0.0001156572636 0)
(-0.001322402841 2.094068975e-05 0)
(-0.002639501005 0.0001122096717 0)
(-0.001434394866 2.467677452e-05 0)
(-0.00280123108 0.0001074332656 0)
(-0.001536957742 2.855135919e-05 0)
(-0.002937217415 0.000101940866 0)
(-0.001630129114 3.262179091e-05 0)
(-0.0030469052 9.63242478e-05 0)
(-0.00171445802 3.690618673e-05 0)
(-0.00313087804 9.107408821e-05 0)
(-0.001790831173 4.136684611e-05 0)
(-0.003190644149 8.650576331e-05 0)
(-0.001860236366 4.590353284e-05 0)
(-0.003228294167 8.27024158e-05 0)
(-0.001923535675 5.035368868e-05 0)
(-0.003246136233 7.952436948e-05 0)
(-0.001981242698 5.448945608e-05 0)
(-0.003246365902 7.661247663e-05 0)
(-0.002033297948 5.802453897e-05 0)
(-0.003230707363 7.339525968e-05 0)
(-0.002078926455 6.065746579e-05 0)
(-0.003200109355 6.917536273e-05 0)
(-0.002116762487 6.211075552e-05 0)
(-0.003154724644 6.331658123e-05 0)
(-0.002144849333 6.214964626e-05 0)
(-0.003094010778 5.528216923e-05 0)
(-0.002160869214 6.060658951e-05 0)
(-0.00301684296 4.4696446e-05 0)
(-0.002162369308 5.740760429e-05 0)
(-0.00292179493 3.140905222e-05 0)
(-0.002147066544 5.25847162e-05 0)
(-0.002807475575 1.555887875e-05 0)
(-0.002113111181 4.626572635e-05 0)
(-0.002672842107 -2.468093597e-06 0)
(-0.002059298701 3.866668536e-05 0)
(-0.002517500863 -2.209076417e-05 0)
(-0.00198523704 3.008218806e-05 0)
(-0.002341868766 -4.25740053e-05 0)
(-0.00189141937 2.08603711e-05 0)
(-0.002147258347 -6.311486333e-05 0)
(-0.001779186615 1.136707109e-05 0)
(-0.001935822821 -8.294464973e-05 0)
(-0.001650588683 1.951070611e-06 0)
(-0.001710354333 -0.0001014214788 0)
(-0.001508196095 -7.083945065e-06 0)
(-0.001474031953 -0.0001180712823 0)
(-0.001354898722 -1.549718213e-05 0)
(-0.001230150606 -0.0001325923427 0)
(-0.001193719163 -2.311937516e-05 0)
(-0.0009819608976 -0.0001448396631 0)
(-0.001027653905 -2.985058959e-05 0)
(-0.0007324708336 -0.0001547934612 0)
(-0.0008595598374 -3.564849842e-05 0)
(-0.0004844585469 -0.0001625144571 0)
(-0.0006920724096 -4.051653356e-05 0)
(-0.0002403399122 -0.0001681174897 0)
(-0.0005275769218 -4.448674545e-05 0)
(-2.3641971e-06 -0.0001717263722 0)
(-0.0003682104965 -4.760979126e-05 0)
(0.0002274947701 -0.000173445412 0)
(-0.0002158589253 -4.994841464e-05 0)
(0.0004473799055 -0.0001733792439 0)
(-7.216492914e-05 -5.156882051e-05 0)
(0.0006555307054 -0.0001716187762 0)
(6.145641427e-05 -5.253720063e-05 0)
(0.0008502682453 -0.000168252685 0)
(0.0001838112183 -5.291766691e-05 0)
(0.001030000186 -0.0001633700558 0)
(0.0002939141422 -5.277164052e-05 0)
(0.001193235909 -0.0001570688695 0)
(0.0003909732139 -5.215742801e-05 0)
(0.001338604158 -0.0001494512465 0)
(0.0004743666994 -5.11300057e-05 0)
(0.00146486297 -0.0001406196714 0)
(0.0005436108783 -4.974054441e-05 0)
(0.001570886674 -0.0001306687281 0)
(0.0005983197856 -4.803300458e-05 0)
(0.001655638972 -0.0001196776478 0)
(0.0006381576838 -4.604650795e-05 0)
(0.001718118863 -0.0001076978759 0)
(0.0006627996515 -4.381935213e-05 0)
(0.001757331588 -9.475779669e-05 0)
(0.0006719099226 -4.138134968e-05 0)
(0.001772227195 -8.087029926e-05 0)
(0.0006650657673 -3.875329003e-05 0)
(0.001761598334 -6.601182353e-05 0)
(0.0006417958136 -3.594958732e-05 0)
(0.001724118925 -5.015629444e-05 0)
(0.0006015642721 -3.297905737e-05 0)
(0.001658355927 -3.327239946e-05 0)
(0.0005437931057 -2.984704325e-05 0)
(0.001562773381 -1.53430783e-05 0)
(0.0004679061558 -2.65551969e-05 0)
(0.001435808515 3.622751599e-06 0)
(0.0003733825503 -2.310344663e-05 0)
(0.001275963405 2.357388214e-05 0)
(0.0002598306975 -1.949280274e-05 0)
(0.001081930479 4.440633263e-05 0)
(0.0001270634005 -1.573002435e-05 0)
(0.0008527288964 6.595157006e-05 0)
(-2.48171774e-05 -1.183204261e-05 0)
(0.0005878529218 8.796550478e-05 0)
(-0.0001953426667 -7.813762548e-06 0)
(0.0002874189813 0.000110126099 0)
(-0.0003836840996 -3.663252838e-06 0)
(-4.781590975e-05 0.0001321083237 0)
(-0.0005886805077 6.597706923e-07 0)
(-0.0004160944081 0.0001536018273 0)
(-0.0008089575983 5.149404808e-06 0)
(-0.0008151952223 0.0001743861508 0)
(-0.001042735574 9.691974132e-06 0)
(-0.001242201314 0.0001940195558 0)
(-0.001287517215 1.41270984e-05 0)
(-0.001693100711 0.0002117130239 0)
(-0.001540089217 1.830773475e-05 0)
(-0.00216249005 0.0002266436498 0)
(-0.001796627536 2.20866105e-05 0)
(-0.002643737832 0.0002380616809 0)
(-0.00205276143 2.53056415e-05 0)
(-0.003129177954 0.0002452569237 0)
(-0.00230365513 2.780514876e-05 0)
(-0.003610233687 0.000247583759 0)
(-0.002544100636 2.942991903e-05 0)
(-0.004077593152 0.0002444835244 0)
(-0.002768622663 3.003654298e-05 0)
(-0.004521417997 0.0002355071997 0)
(-0.002971610138 2.950404636e-05 0)
(-0.004931582563 0.0002203488832 0)
(-0.00314747197 2.774449791e-05 0)
(-0.005297958524 0.0001988852029 0)
(-0.003290828672 2.471292554e-05 0)
(-0.005610745703 0.0001712092537 0)
(-0.003396730421 2.041504905e-05 0)
(-0.005860843107 0.0001376613073 0)
(-0.00346088134 1.491352557e-05 0)
(-0.006040233073 9.885031082e-05 0)
(-0.003479949438 8.338128598e-06 0)
(-0.006142451358 5.566186171e-05 0)
(-0.003451695149 8.82154396e-07 0)
(-0.006162916611 9.263171219e-06 0)
(-0.003375290206 -7.198513186e-06 0)
(-0.006099298352 -3.893443777e-05 0)
(-0.003251544323 -1.55314328e-05 0)
(-0.005951872032 -8.72587967e-05 0)
(-0.003083185128 -2.368855553e-05 0)
(-0.005724244173 -0.0001337422045 0)
(-0.002874554916 -3.140454921e-05 0)
(-0.00542249893 -0.0001767065607 0)
(-0.002630878907 -3.85543554e-05 0)
(-0.005054749951 -0.000215203494 0)
(-0.002358044667 -4.499438317e-05 0)
(-0.004630672738 -0.0002484979553 0)
(-0.002062503345 -5.057614052e-05 0)
(-0.004160987417 -0.0002759503562 0)
(-0.001751027848 -5.518966347e-05 0)
(-0.003657102706 -0.0002971604136 0)
(-0.001430465528 -5.876981778e-05 0)
(-0.003130701902 -0.0003119723829 0)
(-0.001107500165 -6.129656665e-05 0)
(-0.002593333207 -0.0003204672496 0)
(-0.0007884274564 -6.279355269e-05 0)
(-0.002056019234 -0.0003229487039 0)
(-0.0004789586825 -6.332422554e-05 0)
(-0.001528905814 -0.0003199142322 0)
(-0.0001840652262 -6.298486723e-05 0)
(-0.001020972699 -0.0003120173766 0)
(9.21301726e-05 -6.18959478e-05 0)
(-0.0005398224019 -0.0003000183064 0)
(0.0003464058982 -6.019286824e-05 0)
(-9.155772563e-05 -0.0002847341275 0)
(0.000576445768 -5.801624641e-05 0)
(0.0003192521176 -0.0002669889712 0)
(0.000780796562 -5.550333843e-05 0)
(0.0006895230586 -0.0002475704443 0)
(0.0009587900129 -5.27815271e-05 0)
(0.001017541017 -0.0002271964722 0)
(0.001110440169 -4.996425089e-05 0)
(0.001302798636 -0.0002064932875 0)
(0.00123633196 -4.714942504e-05 0)
(0.001545804367 -0.0001859843685 0)
(0.001337503039 -4.441650673e-05 0)
(0.001747885728 -0.0001660910575 0)
(0.001415328929 -4.181725227e-05 0)
(0.001910995044 -0.0001471297567 0)
(0.001471389494 -3.937628019e-05 0)
(0.002037475956 -0.000129296578 0)
(0.001507356223 -3.711131365e-05 0)
(0.002129971629 -0.0001126864424 0)
(0.001524957317 -3.504186625e-05 0)
(0.002191209585 -9.737000151e-05 0)
(0.001525938389 -3.318079475e-05 0)
(0.00222395371 -8.338493687e-05 0)
(0.001512011633 -3.153123931e-05 0)
(0.002230939153 -7.072793405e-05 0)
(0.001484821255 -3.008893865e-05 0)
(0.002214808513 -5.936322206e-05 0)
(0.001445916992 -2.884419353e-05 0)
(0.002178067581 -4.923232675e-05 0)
(0.001396738876 -2.778372197e-05 0)
(0.002123059414 -4.026218188e-05 0)
(0.001338608418 -2.689272913e-05 0)
(0.002051950171 -3.237265778e-05 0)
(0.001272736375 -2.615694774e-05 0)
(0.001966735998 -2.548559507e-05 0)
(0.00120023331 -2.556460259e-05 0)
(0.001869247785 -1.953482708e-05 0)
(0.001122131163 -2.510699881e-05 0)
(0.001761190176 -1.447104404e-05 0)
(0.001039408299 -2.477931427e-05 0)
(0.001644177862 -1.026580575e-05 0)
(0.0009530108348 -2.458084264e-05 0)
(0.001519771603 -6.909919099e-06 0)
(0.0008638648671 -2.451260628e-05 0)
(0.001389504072 -4.402881896e-06 0)
(0.0007728698913 -2.457257888e-05 0)
(0.001254878337 -2.734251348e-06 0)
(0.0006808653412 -2.475181644e-05 0)
(0.001117327079 -1.857351494e-06 0)
(0.0005885731367 -2.503642805e-05 0)
(0.0009781279625 -1.667201675e-06 0)
(0.0004965492664 -2.542478014e-05 0)
(0.0008382938903 -2.007030775e-06 0)
(0.0004052052789 -2.596700623e-05 0)
(0.0006985027285 -2.741766356e-06 0)
(0.0003150222817 -2.682164444e-05 0)
(0.0005591634822 -3.941814153e-06 0)
(0.0002270936536 -2.826011674e-05 0)
(0.000420882205 -6.215756459e-06 0)
(0.0001439079534 -3.035879476e-05 0)
(0.0002855730694 -1.095350241e-05 0)
(6.995117518e-05 -2.711450644e-05 0)
(0.0001590318657 -2.016216745e-05 0)
(4.53667106e-05 -2.417234157e-05 0)
(-1.061334333e-06 -0.0001697757228 0)
(-2.031912675e-05 -0.0001615586081 0)
(7.174801541e-05 -0.0002281914739 0)
(2.287253243e-05 -0.0002936071386 0)
(0.0001574783216 -0.0002304689599 0)
(9.807457054e-05 -0.0003167865553 0)
(0.0002250574322 -0.0002092559909 0)
(0.0001619838356 -0.0002894623322 0)
(0.0002620589823 -0.0001801655054 0)
(0.0001925215127 -0.0002426741519 0)
(0.0002649063959 -0.0001492615398 0)
(0.0001836256742 -0.0001903394255 0)
(0.0002329582183 -0.000117912297 0)
(0.0001338513312 -0.0001368607849 0)
(0.0001658764806 -8.577576378e-05 0)
(4.286568442e-05 -8.246636457e-05 0)
(6.295079476e-05 -5.235541523e-05 0)
(-8.990186611e-05 -2.640497249e-05 0)
(-7.663030312e-05 -1.757182417e-05 0)
(-0.0002651940508 3.161507926e-05 0)
(-0.0002532414015 1.817390817e-05 0)
(-0.0004833746694 9.105483284e-05 0)
(-0.0004663431699 5.412445424e-05 0)
(-0.0007438137893 0.0001506609848 0)
(-0.0007141777776 8.932061655e-05 0)
(-0.001044421129 0.0002087310676 0)
(-0.0009936553359 0.0001227318216 0)
(-0.001381437432 0.0002633682153 0)
(-0.001300344418 0.0001533415041 0)
(-0.001749407573 0.0003126618089 0)
(-0.001628555413 0.0001802054717 0)
(-0.002141241496 0.0003548072928 0)
(-0.001971500475 0.0002025034716 0)
(-0.002548414307 0.0003882151832 0)
(-0.002321523426 0.0002195894811 0)
(-0.002961243097 0.000411601736 0)
(-0.002670396247 0.0002310459261 0)
(-0.003369247683 0.0004240842523 0)
(-0.003009670835 0.0002367307987 0)
(-0.003761589783 0.0004252710051 0)
(-0.003331083867 0.0002368079742 0)
(-0.004127579381 0.0004153280566 0)
(-0.003626991172 0.0002317568002 0)
(-0.004457224133 0.0003950170654 0)
(-0.003890780599 0.0002223522364 0)
(-0.004741778301 0.0003656768325 0)
(-0.004117238982 0.0002096112412 0)
(-0.004974235559 0.0003291489337 0)
(-0.004302821157 0.0001946974121 0)
(-0.005149732702 0.0002876486052 0)
(-0.004445767865 0.0001788008077 0)
(-0.005265778144 0.0002435471702 0)
(-0.004546083418 0.0001630032884 0)
(-0.005322292192 0.0001991628545 0)
(-0.004605323179 0.0001481376348 0)
(-0.005321440145 0.0001565033177 0)
(-0.004626223294 0.0001346676065 0)
(-0.005267250435 0.0001170286653 0)
(-0.004612216071 0.0001226399133 0)
(-0.005165003464 8.148584844e-05 0)
(-0.00456696522 0.0001116959302 0)
(-0.005020642417 4.993987229e-05 0)
(-0.004493910098 0.0001010864452 0)
(-0.004840195539 2.179099453e-05 0)
(-0.004395831897 8.976294663e-05 0)
(-0.00462918734 -4.196471499e-06 0)
(-0.004274556189 7.661425723e-05 0)
(-0.004392138753 -2.962390986e-05 0)
(-0.004131112408 6.066964474e-05 0)
(-0.004132512224 -5.599855037e-05 0)
(-0.003965730866 4.119263424e-05 0)
(-0.003852805023 -8.455158581e-05 0)
(-0.003778162258 1.778522066e-05 0)
(-0.003554708701 -0.0001161339735 0)
(-0.003567988549 -9.505404943e-06 0)
(-0.003239442621 -0.0001510514723 0)
(-0.003335012528 -4.017277814e-05 0)
(-0.002908138239 -0.0001889415113 0)
(-0.003079616395 -7.332904485e-05 0)
(-0.00256218341 -0.0002288638853 0)
(-0.002802981596 -0.0001078049355 0)
(-0.002203493463 -0.0002694853406 0)
(-0.002507190831 -0.0001422796269 0)
(-0.001834678363 -0.000309236935 0)
(-0.002195187145 -0.000175441815 0)
(-0.001459018402 -0.0003465433597 0)
(-0.001870564927 -0.0002061574324 0)
(-0.001080284161 -0.0003800762348 0)
(-0.001537246557 -0.000233579542 0)
(-0.0007023078297 -0.0004089559721 0)
(-0.001199162069 -0.000257171954 0)
(-0.0003286802937 -0.0004327701004 0)
(-0.0008600029173 -0.0002766881481 0)
(3.772245956e-05 -0.000451504664 0)
(-0.0005230474571 -0.0002921133604 0)
(0.0003946998829 -0.0004654358983 0)
(-0.0001911181099 -0.0003035880324 0)
(0.0007408340681 -0.0004749764579 0)
(0.0001334025905 -0.0003113386415 0)
(0.001075280949 -0.000480565374 0)
(0.000448462954 -0.0003156143931 0)
(0.00139768282 -0.0004825570841 0)
(0.0007522246798 -0.0003166470834 0)
(0.001707741898 -0.0004811681444 0)
(0.001042963188 -0.0003146329332 0)
(0.002005134844 -0.0004764821297 0)
(0.001318947254 -0.0003097307684 0)
(0.002289211396 -0.0004684453371 0)
(0.001578382654 -0.0003020793149 0)
(0.002558899422 -0.0004569386094 0)
(0.00181941625 -0.0002918152185 0)
(0.002812683504 -0.0004418408194 0)
(0.002040162968 -0.0002790849484 0)
(0.003048654578 -0.0004230758287 0)
(0.002238753688 -0.0002640477921 0)
(0.003264605321 -0.0004006343252 0)
(0.002413373312 -0.000246868798 0)
(0.003458138766 -0.0003745738797 0)
(0.002562281325 -0.0002277055763 0)
(0.003626762378 -0.0003449944631 0)
(0.002683806186 -0.00020669228 0)
(0.003767945877 -0.0003120065662 0)
(0.002776309255 -0.0001839245468 0)
(0.003879134755 -0.0002756939319 0)
(0.002838134291 -0.0001594500897 0)
(0.003957718989 -0.0002360861461 0)
(0.002867538442 -0.0001332697786 0)
(0.004001015386 -0.0001931361855 0)
(0.002862642209 -0.0001053351762 0)
(0.004006166657 -0.0001467194397 0)
(0.00282131514 -7.557127754e-05 0)
(0.003970049033 -9.665374841e-05 0)
(0.00274128145 -4.390348051e-05 0)
(0.003889301632 -4.275494345e-05 0)
(0.002620105793 -1.027237469e-05 0)
(0.003760381318 1.513416632e-05 0)
(0.002455267859 2.533522424e-05 0)
(0.003579585999 7.709849809e-05 0)
(0.002244284154 6.285627333e-05 0)
(0.003343194762 0.0001430889127 0)
(0.001984869368 0.0001021261281 0)
(0.003047651645 0.0002128692972 0)
(0.001675128347 0.0001428579265 0)
(0.002689794974 0.0002859750838 0)
(0.001313757253 0.0001846275215 0)
(0.002267113758 0.0003616842553 0)
(0.0009002397307 0.0002268669987 0)
(0.001778011391 0.0004390091494 0)
(0.0004350310658 0.0002688792646 0)
(0.001222061313 0.0005166979489 0)
(-8.016989581e-05 0.0003099323725 0)
(0.0006001641774 0.0005932095254 0)
(-0.0006425279904 0.0003494694483 0)
(-8.525903925e-05 0.0006671048061 0)
(-0.001248350132 0.0003868437846 0)
(-0.0008302409895 0.0007372842195 0)
(-0.001892537337 0.0004208495452 0)
(-0.001629163708 0.000801843373 0)
(-0.002568101209 0.0004499526004 0)
(-0.002474416251 0.0008580129217 0)
(-0.003266215012 0.0004726730796 0)
(-0.003355690077 0.0009030044381 0)
(-0.003976427622 0.0004876461335 0)
(-0.004260472439 0.0009342871508 0)
(-0.00468686405 0.000493626643 0)
(-0.005174371815 0.0009495478526 0)
(-0.005384472567 0.000489531212 0)
(-0.006081334043 0.0009467748401 0)
(-0.006055315343 0.000474479216 0)
(-0.006964000759 0.0009243314723 0)
(-0.006684904874 0.0004478440116 0)
(-0.007804136822 0.0008810389924 0)
(-0.007258598197 0.0004093164704 0)
(-0.008583119963 0.000816277458 0)
(-0.007762054751 0.0003589701583 0)
(-0.009282508997 0.0007300910709 0)
(-0.008181746687 0.0002973195637 0)
(-0.00988467722 0.0006232828984 0)
(-0.008505508407 0.0002253644928 0)
(-0.01037349148 0.0004974891664 0)
(-0.008723111252 0.0001446168112 0)
(-0.01073499446 0.0003552159002 0)
(-0.008826872992 5.709879707e-05 0)
(-0.0109581846 0.0001998528812 0)
(-0.008812078833 -3.468277447e-05 0)
(-0.01103554089 3.560197478e-05 0)
(-0.008677547182 -0.0001277316831 0)
(-0.01096359091 -0.0001325557337 0)
(-0.008426169424 -0.000218601334 0)
(-0.01074350514 -0.0002988478909 0)
(-0.008064905476 -0.0003039994715 0)
(-0.01038230608 -0.0004571857745 0)
(-0.00760385057 -0.0003815021444 0)
(-0.009890156485 -0.0006026946843 0)
(-0.007055497617 -0.0004493950131 0)
(-0.009281367492 -0.0007319611397 0)
(-0.006434322178 -0.0005063453574 0)
(-0.008572808042 -0.0008422018974 0)
(-0.005756015091 -0.0005514351544 0)
(-0.007783159793 -0.0009314943245 0)
(-0.005036905302 -0.0005842007138 0)
(-0.006932288498 -0.0009987312117 0)
(-0.00429338798 -0.0006046329617 0)
(-0.006040504506 -0.001043621214 0)
(-0.003541364225 -0.0006131575327 0)
(-0.005127848638 -0.001066668448 0)
(-0.00279571924 -0.0006105928093 0)
(-0.004213412182 -0.001069114501 0)
(-0.002069880479 -0.0005980847628 0)
(-0.003314726304 -0.001052838333 0)
(-0.001375469651 -0.0005770228207 0)
(-0.002447261477 -0.001020216733 0)
(-0.0007220762764 -0.0005489452855 0)
(-0.001624065505 -0.0009739590215 0)
(-0.0001171555271 -0.0005154438708 0)
(-0.0008555585943 -0.000916933114 0)
(0.0004339547658 -0.0004780755492 0)
(-0.0001494858988 -0.0008519973125 0)
(0.0009279117854 -0.0004382902169 0)
(0.0004889851636 -0.0007818568492 0)
(0.001363167978 -0.0003973784015 0)
(0.001057049226 -0.0007089524086 0)
(0.001739716539 -0.0003564404259 0)
(0.00155396267 -0.0006353883616 0)
(0.002058813279 -0.0003163780035 0)
(0.00198069263 -0.0005628988894 0)
(0.002322698933 -0.0002778882643 0)
(0.002339577764 -0.0004928490978 0)
(0.00253433062 -0.0002414569328 0)
(0.002633917258 -0.0004262464988 0)
(0.00269712981 -0.0002073750705 0)
(0.002867697765 -0.0003637366129 0)
(0.002814763945 -0.0001758072131 0)
(0.003045399988 -0.0003056583208 0)
(0.002891005578 -0.0001468447614 0)
(0.003171586417 -0.0002521978866 0)
(0.002929621758 -0.0001205062129 0)
(0.00325083342 -0.0002034052793 0)
(0.002934280327 -9.674350318e-05 0)
(0.003287622173 -0.0001592065491 0)
(0.002908487444 -7.545841604e-05 0)
(0.00328624133 -0.0001194349805 0)
(0.002855543066 -5.651949485e-05 0)
(0.003250727864 -8.386259448e-05 0)
(0.002778518253 -3.977629416e-05 0)
(0.003184837214 -5.222567366e-05 0)
(0.002680251587 -2.507413426e-05 0)
(0.003092035758 -2.424863379e-05 0)
(0.002563358442 -1.227086844e-05 0)
(0.002975505745 3.325953513e-07 0)
(0.002430263134 -1.252487664e-06 0)
(0.002838182945 2.174172855e-05 0)
(0.002283251095 8.056287396e-06 0)
(0.002682810104 4.013808606e-05 0)
(0.0021245172 1.569245873e-05 0)
(0.002511996538 5.561016371e-05 0)
(0.001956207314 2.166896473e-05 0)
(0.002328274155 6.819236586e-05 0)
(0.001780430828 2.600180363e-05 0)
(0.002134132667 7.79026297e-05 0)
(0.001599222543 2.875295878e-05 0)
(0.001932003868 8.480429746e-05 0)
(0.001414454625 3.0077851e-05 0)
(0.001724185978 8.909395628e-05 0)
(0.001227693623 3.024180623e-05 0)
(0.001512696672 9.116927207e-05 0)
(0.001040067701 2.955077523e-05 0)
(0.00129908838 9.161889713e-05 0)
(0.000852253996 2.812122225e-05 0)
(0.001084327126 9.101868119e-05 0)
(0.0006647921704 2.542668689e-05 0)
(0.000868862985 8.941773387e-05 0)
(0.000479006993 1.97688327e-05 0)
(0.0006532619885 8.540767842e-05 0)
(0.0002988825583 8.372001044e-06 0)
(0.0004396144139 7.494348402e-05 0)
(0.0001331428597 -6.024922106e-06 0)
(0.0002372944952 5.131524445e-05 0)
(6.102690239e-05 1.482794354e-05 0)
(-5.720289058e-06 -0.0002863281008 0)
(-2.128356852e-05 -0.0002396902155 0)
(4.802294855e-05 -0.0003828466988 0)
(5.001674044e-06 -0.000430880509 0)
(0.0001032775426 -0.0003765442982 0)
(4.793232241e-05 -0.0004548235333 0)
(0.0001297472781 -0.0003237222757 0)
(6.86533165e-05 -0.0003975977218 0)
(0.0001143693793 -0.0002536884956 0)
(4.678168322e-05 -0.0003074945395 0)
(5.28220551e-05 -0.0001787320546 0)
(-2.353416353e-05 -0.0002071777417 0)
(-5.601308974e-05 -0.0001021339264 0)
(-0.0001437523088 -0.0001042599117 0)
(-0.0002126754886 -2.371957303e-05 0)
(-0.0003141664888 4.381279609e-07 0)
(-0.0004177797913 5.705013072e-05 0)
(-0.0005351197466 0.0001077231246 0)
(-0.0006716388408 0.000139841134 0)
(-0.0008067718643 0.0002175623046 0)
(-0.0009736104554 0.0002232623459 0)
(-0.001128433243 0.0003284316826 0)
(-0.001321511731 0.0003051181249 0)
(-0.001497844574 0.0004375094059 0)
(-0.001711260143 0.0003827665809 0)
(-0.001910676203 0.0005411603969 0)
(-0.002136731554 0.0004534247695 0)
(-0.002360304694 0.0006354164409 0)
(-0.002589806013 0.0005143906187 0)
(-0.002837813875 0.000716341397 0)
(-0.003060559027 0.000563212964 0)
(-0.003332179439 0.0007803027154 0)
(-0.003537569658 0.0005978368312 0)
(-0.003830601597 0.0008241903276 0)
(-0.004008327837 0.0006167400063 0)
(-0.004318961217 0.00084561659 0)
(-0.004459741956 0.0006190639163 0)
(-0.004782389129 0.0008431068444 0)
(-0.004878729902 0.0006047250845 0)
(-0.005205938051 0.0008162670539 0)
(-0.005252866006 0.000574489182 0)
(-0.00557532471 0.0007659104703 0)
(-0.005571054185 0.0005299791768 0)
(-0.005877720259 0.0006941162001 0)
(-0.005824153327 0.0004736026404 0)
(-0.006102510669 0.000604158405 0)
(-0.006005501341 0.000408403236 0)
(-0.006241944208 0.0005003310725 0)
(-0.00611129437 0.0003378078215 0)
(-0.006291655627 0.0003876678833 0)
(-0.006140715441 0.0002653249838 0)
(-0.00625087731 0.0002714774537 0)
(-0.006095868142 0.0001942076744 0)
(-0.006122468596 0.0001569421797 0)
(-0.005981396976 0.0001270923109 0)
(-0.0059125277 4.854268183e-05 0)
(-0.005803898114 6.57241375e-05 0)
(-0.005629832169 -5.037178454e-05 0)
(-0.005571188767 1.085960772e-05 0)
(-0.005284689981 -0.0001378978756 0)
(-0.005291597255 -3.769807665e-05 0)
(-0.004888382423 -0.0002135075161 0)
(-0.004973270568 -8.10566297e-05 0)
(-0.004452110018 -0.0002780145175 0)
(-0.004623541239 -0.0001210240155 0)
(-0.003986128287 -0.0003334814834 0)
(-0.004248512145 -0.0001596056825 0)
(-0.003499173288 -0.000382684372 0)
(-0.003853172483 -0.0001985813216 0)
(-0.002998407994 -0.000428269801 0)
(-0.003441409439 -0.0002393233288 0)
(-0.002489283234 -0.0004724485563 0)
(-0.00301636768 -0.0002826150922 0)
(-0.001976125436 -0.0005167564698 0)
(-0.002580764287 -0.0003284556164 0)
(-0.001462464063 -0.0005618410284 0)
(-0.002137246878 -0.0003760370128 0)
(-0.0009516152043 -0.0006073483445 0)
(-0.001688707451 -0.000423956444 0)
(-0.0004469082748 -0.0006520631796 0)
(-0.001238448454 -0.0004704667728 0)
(4.831625864e-05 -0.0006942478526 0)
(-0.0007902277969 -0.000513719991 0)
(0.0005301998021 -0.0007319310999 0)
(-0.0003481098015 -0.0005520863108 0)
(0.0009945813901 -0.0007633193338 0)
(8.390698987e-05 -0.0005844450427 0)
(0.001437340002 -0.0007872695667 0)
(0.0005023372244 -0.0006103106464 0)
(0.001855051277 -0.0008035444838 0)
(0.0009046121042 -0.0006297733705 0)
(0.002245466082 -0.0008127726023 0)
(0.001289284289 -0.0006433224129 0)
(0.002608024943 -0.0008161586993 0)
(0.001655969462 -0.0006516440394 0)
(0.002943731835 -0.0008151078588 0)
(0.002005186834 -0.0006554462886 0)
(0.003255010055 -0.0008109549798 0)
(0.002338064914 -0.0006553095016 0)
(0.003545284447 -0.0008047236608 0)
(0.002655973532 -0.0006515804155 0)
(0.003818468023 -0.000796940754 0)
(0.002960128891 -0.0006443401038 0)
(0.004078332903 -0.0007875692775 0)
(0.003251250793 -0.0006334347852 0)
(0.004327974102 -0.000776064318 0)
(0.00352935116 -0.0006185546275 0)
(0.004569378027 -0.000761517344 0)
(0.003793639949 -0.000599338194 0)
(0.004803205938 -0.0007428527257 0)
(0.0040425527 -0.0005754640203 0)
(0.005028761335 -0.0007190167416 0)
(0.004273863513 -0.000546709226 0)
(0.005244112775 -0.0006891236617 0)
(0.004484845334 -0.0005129692062 0)
(0.005446319188 -0.0006525268337 0)
(0.004672432425 -0.0004742403486 0)
(0.005631694032 -0.0006088267374 0)
(0.00483334759 -0.0004305780117 0)
(0.005796049197 -0.0005578194951 0)
(0.004964184802 -0.0003820434813 0)
(0.00593488492 -0.0004994150474 0)
(0.005061432874 -0.0003286545529 0)
(0.006043500418 -0.000433547133 0)
(0.00512145607 -0.0002703437516 0)
(0.006117032563 -0.0003600971306 0)
(0.005140427085 -0.0002069369517 0)
(0.006150473243 -0.0002788247177 0)
(0.005114302155 -0.0001381779985 0)
(0.006138542018 -0.0001893628692 0)
(0.00503869197 -6.377402045e-05 0)
(0.006075708427 -9.128773407e-05 0)
(0.004908988037 1.65436637e-05 0)
(0.005956104503 1.585317447e-05 0)
(0.004720375386 0.000102956856 0)
(0.005773658328 0.0001323971136 0)
(0.004467953452 0.0001954888878 0)
(0.005522145475 0.0002585105298 0)
(0.004146929081 0.000293917151 0)
(0.005195370783 0.0003940465776 0)
(0.003752870566 0.0003977038418 0)
(0.004787433267 0.0005384317301 0)
(0.00328200272 0.000505946586 0)
(0.004293044891 0.0006905807239 0)
(0.002731520564 0.0006173542603 0)
(0.003707883728 0.0008488443716 0)
(0.002099895326 0.0007302489212 0)
(0.00302894974 0.001011001373 0)
(0.001387134244 0.0008425800148 0)
(0.002254900979 0.001174292414 0)
(0.0005949375344 0.0009520941898 0)
(0.001386388431 0.00133549538 0)
(-0.0002729748766 0.001056714409 0)
(0.0004259856913 0.001491131851 0)
(-0.001211049049 0.001154105092 0)
(-0.0006220255286 0.001638210067 0)
(-0.002211162051 0.001240848489 0)
(-0.001748939638 0.001772165074 0)
(-0.00326217357 0.001312900967 0)
(-0.002943951738 0.001887075722 0)
(-0.004350144222 0.001366417037 0)
(-0.004192157374 0.001977190174 0)
(-0.005458661417 0.00139791742 0)
(-0.005475584601 0.002037311438 0)
(-0.00656913993 0.001404322381 0)
(-0.006773660831 0.002062751736 0)
(-0.007661221513 0.001383067372 0)
(-0.008063454408 0.002049521656 0)
(-0.008713256308 0.001332218793 0)
(-0.009320221292 0.001994499746 0)
(-0.00970287741 0.001250606225 0)
(-0.01051806197 0.001895620059 0)
(-0.01060766461 0.001137965136 0)
(-0.01163067769 0.001752070499 0)
(-0.01140589062 0.0009950720055 0)
(-0.01263222905 0.001564481843 0)
(-0.01207731853 0.0008238535776 0)
(-0.01349826166 0.001335081278 0)
(-0.01260403154 0.0006274546129 0)
(-0.0142066604 0.001067788769 0)
(-0.01297125247 0.0004102616439 0)
(-0.01473856781 0.0007682476443 0)
(-0.01316817514 0.0001778455951 0)
(-0.01507940507 0.0004437951354 0)
(-0.01318850835 -6.311973814e-05 0)
(-0.0152194844 0.0001032692608 0)
(-0.01303120453 -0.0003048562858 0)
(-0.01515459342 -0.0002430608107 0)
(-0.01270118447 -0.0005389572933 0)
(-0.01488721363 -0.0005834221444 0)
(-0.01220879748 -0.0007577549471 0)
(-0.01442701532 -0.000906237333 0)
(-0.01156880877 -0.0009553163679 0)
(-0.01378779812 -0.001202155929 0)
(-0.01079965018 -0.00112716372 0)
(-0.01298914507 -0.00146404209 0)
(-0.009922392076 -0.001269960875 0)
(-0.01205360082 -0.001686419755 0)
(-0.008959920335 -0.001381582482 0)
(-0.01100638813 -0.001865503934 0)
(-0.007936087497 -0.00146108432 0)
(-0.009874413938 -0.001999172402 0)
(-0.006874859169 -0.001508682064 0)
(-0.00868529124 -0.002086971348 0)
(-0.005799481235 -0.00152569147 0)
(-0.007466353286 -0.002130074516 0)
(-0.004731703988 -0.001514412173 0)
(-0.006243697792 -0.002131161341 0)
(-0.003691116792 -0.001477953691 0)
(-0.005041318729 -0.002094209593 0)
(-0.00269462835 -0.00142001492 0)
(-0.0038803837 -0.002024205971 0)
(-0.001756126958 -0.00134463911 0)
(-0.002778704949 -0.001926803634 0)
(-0.0008863287735 -0.001255967575 0)
(-0.001750431923 -0.001807959949 0)
(-9.281085076e-05 -0.001158015291 0)
(-0.0008059721911 -0.00167358847 0)
(0.000619797878 -0.001054487266 0)
(4.787559681e-05 -0.001529257545 0)
(0.001249501177 -0.0009486470766 0)
(0.0008076117036 -0.001379959471 0)
(0.001796540357 -0.0008432413105 0)
(0.001472595616 -0.001229960972 0)
(0.002262956406 -0.0007404728389 0)
(0.002044527127 -0.00108273265 0)
(0.002652141453 -0.0006420248335 0)
(0.002526975676 -0.0009409362482 0)
(0.002968500271 -0.0005490770107 0)
(0.002924669942 -0.0008065545144 0)
(0.003217075941 -0.0004623278022 0)
(0.003243335416 -0.0006808433106 0)
(0.003403187189 -0.0003821356983 0)
(0.003489262898 -0.0005644083772 0)
(0.00353222909 -0.0003086439407 0)
(0.003668730941 -0.0004575124383 0)
(0.003609508595 -0.0002418095983 0)
(0.003787945813 -0.0003601316763 0)
(0.003640128623 -0.000181440135 0)
(0.003852893284 -0.0002720097786 0)
(0.003628909663 -0.0001272387011 0)
(0.003869214796 -0.0001927292711 0)
(0.003580345778 -7.884397508e-05 0)
(0.003842150292 -0.000121771627 0)
(0.003498587961 -3.586478381e-05 0)
(0.003776517342 -5.856797865e-05 0)
(0.003387445753 2.086155706e-06 0)
(0.003676716708 -2.542220964e-06 0)