/*--------------------------------*- C++ -*----------------------------------*\
| =========                 |                                                 |
| \\      /  F ield         | OpenFOAM: The Open Source CFD Toolbox           |
|  \\    /   O peration     | Version:  2412                                  |
|   \\  /    A nd           | Website:  www.openfoam.com                      |
|    \\/     M anipulation  |                                                 |
\*---------------------------------------------------------------------------*/
FoamFile
{
    version     2.0;
    format      ascii;
    arch        "LSB;label=32;scalar=64";
    class       volScalarField;
    location    "0.05";
    object      T;
}
// * * * * * * * * * * * * * * * * * * * * * * * * * * * * * * * * * * * * * //

dimensions      [0 0 0 1 0 0 0];

internalField   nonuniform List<scalar> 
12008
(
306.5521411
306.5611256
306.5790484
306.6065607
306.6443605
306.6933403
306.7545506
306.8291565
306.9183853
307.0234634
307.1455457
307.2856367
307.4445075
307.6226129
307.8200137
308.0363084
308.2705796
308.5213597
308.7866189
309.063776
309.3497342
309.6409393
309.9334571
310.2230669
310.5053657
310.7758791
311.0301724
311.2639597
311.4732059
311.6542198
311.8037355
311.9189807
311.9977272
312.0380978
312.0396545
312.0018467
311.9250105
311.8101998
311.6591869
311.4744418
311.2590955
311.016882
310.7520575
310.4692934
310.1735483
309.8699208
309.5634921
309.25917
308.9615446
308.6747632
308.4024318
308.1475504
307.9124801
307.6989416
307.5080421
307.3403241
307.195831
307.0741827
306.9746563
306.8962652
306.8378338
306.7980617
306.7755781
306.7689827
306.7768728
306.7979211
306.8308217
306.874287
306.9270971
306.9881079
307.056262
307.130603
307.2102892
307.2946035
307.3829541
307.4748629
307.5699385
307.6678316
307.7681768
307.8705246
307.9742705
308.0785914
308.1823972
308.2843083
308.3826608
308.475545
308.560873
308.6364702
308.7001838
308.7499953
308.7841145
308.8009023
308.7998966
308.7803913
308.7423793
308.6863692
308.6133808
308.5248878
308.4227414
308.3090999
308.1863386
308.0569556
307.9234801
307.788386
307.6540131
307.5224995
307.395727
307.2752815
307.1624276
307.0581002
306.9629089
306.8771575
306.800872
306.7338388
306.6756462
306.6257297
306.5834158
306.547964
306.5186034
306.494565
306.4751066
306.4595324
306.447206
306.4375582
306.4300901
306.4243728
306.4200438
306.416802
306.4144012
306.4126429
306.4113697
306.4104582
306.409813
306.4093613
306.409048
306.4088318
306.4086816
306.4085737
306.4084908
306.4084279
306.5589504
306.5682804
306.5869361
306.6155628
306.6548825
306.7058157
306.7694444
306.8469675
306.9396463
307.0487414
307.1754392
307.3207711
307.4855279
307.6701753
307.8747735
308.0989076
308.3416335
308.6014425
308.8762494
309.1634039
309.4597269
309.7615692
310.0648902
310.3653531
310.6584306
310.9395185
311.2040508
311.4476124
311.6660462
311.8555508
312.0127672
312.1348521
312.2195414
312.2647762
312.2702719
312.2353955
312.1604171
312.0463443
311.8948949
311.7084768
311.4901564
311.243611
310.9730606
310.6831751
310.3789549
310.0655892
309.748299
309.432177
309.1220307
308.8222476
308.5366848
308.2685928
308.0205718
307.7945629
307.591868
307.4131941
307.2587158
307.1281499
307.0208359
306.9358168
306.871916
306.8278062
306.8020685
306.7932396
306.7998081
306.820388
306.8536385
306.8981712
306.9527164
307.016101
307.0872635
307.1652701
307.2493278
307.3387894
307.4331473
307.5320108
307.6350652
307.7420125
307.852499
307.9660339
308.0819105
308.1991383
308.3163975
308.4320243
308.544031
308.6501616
308.7479792
308.8349766
308.9087022
308.9668882
309.0075745
309.028743
309.0302009
309.0111182
308.9714857
308.9118873
308.8334638
308.7378435
308.627075
308.503529
308.3698041
308.2286289
308.082765
307.9349157
307.7876429
307.6432947
307.503946
307.3713548
307.2469339
307.1317385
307.026471
306.931498
306.8468808
306.7724147
306.7076738
306.6520594
306.6048484
306.5652387
306.5323903
306.5054612
306.4836354
306.4661452
306.4522863
306.441427
306.4330122
306.4265636
306.4216763
306.418013
306.4152976
306.4133073
306.4118649
306.4108314
306.4100996
306.4095873
306.4092326
306.4089895
306.4088234
306.4087074
306.4086124
306.4084843
306.5722521
306.5823006
306.6023962
306.6332158
306.675524
306.7302926
306.798661
306.8818887
306.9812996
307.0982152
307.2338785
307.3893693
307.5655161
307.7628069
307.9813074
308.2205883
308.4796698
308.7569855
309.0503687
309.3570628
309.6737566
309.9966404
310.3214842
310.6437316
310.9586079
311.2612364
311.5467615
311.8104708
312.0479152
312.2550205
312.4281867
312.5643745
312.6611746
312.7164866
312.7298036
312.7006392
312.6291567
312.5162867
312.3636878
312.173688
311.9492573
311.6939788
311.4120072
311.1080037
310.787039
310.4544656
310.1157636
309.7763714
309.4415144
309.1160467
308.8043174
308.51007
308.2363797
307.9856263
307.7595018
307.5590449
307.3846971
307.2363741
307.1135458
307.0153194
306.9405217
306.887775
306.8555657
306.8423032
306.8463187
306.8659999
306.9000105
306.9467516
307.0048565
307.0730992
307.1504177
307.2359321
307.3289553
307.4289889
307.5356993
307.648872
307.7683421
307.8939047
308.0252133
308.1616749
308.302355
308.4459054
308.5905262
308.7339712
308.8735974
309.0064567
309.1294212
309.2393312
309.3331517
309.4081259
309.4619162
309.4920785
309.4983772
309.4801861
309.4373438
309.3705781
309.2812684
309.1713567
309.0432574
308.8997532
308.7438855
308.5788447
308.4078624
308.2341096
308.0606033
307.8901231
307.7251428
307.5677768
307.4197443
307.2823514
307.1564922
307.0426655
306.9410066
306.8513311
306.7731852
306.7059021
306.6486578
306.6005253
306.5605246
306.5276645
306.5009789
306.4795533
306.4625448
306.4491941
306.4388312
306.4308769
306.4248391
306.4203067
306.4169422
306.4144727
306.4126805
306.4113949
306.4104836
306.4098455
306.4094045
306.4091045
306.4089046
306.4087755
306.4086886
306.4085523
306.5921691
306.6032705
306.6254799
306.6595176
306.7062058
306.7665857
306.8418735
306.9334108
307.0426053
307.1708615
307.3195011
307.4896751
307.6822711
307.8978224
308.136422
308.3976483
308.6805071
308.9833916
309.3040649
309.6396644
309.9867289
310.341247
310.6987266
311.054283
311.4027446
311.7387749
312.0570061
312.3521819
312.6193041
312.8537747
313.0515279
313.2091437
313.3239377
313.3938391
313.4179937
313.3961569
313.3285802
313.2161313
313.0605652
312.8642229
312.6300204
312.3614429
312.0625439
311.7379279
311.3926993
311.0323682
310.6627138
310.2896124
309.9188472
309.5559202
309.2058812
308.8731922
308.561631
308.2742374
308.0132985
307.7803668
307.5763054
307.4013516
307.255195
307.1370623
307.0458056
306.979989
306.9379701
306.9179761
306.9181597
306.9364853
306.9716819
307.0218479
307.0854799
307.1612888
307.2482308
307.3455297
307.4526792
307.5694215
307.695694
307.8315437
307.9770131
308.132003
308.296129
308.4685839
308.6480233
308.8324938
309.0194143
309.2056173
309.3874483
309.5609132
309.7218604
309.8661805
309.9900043
310.0898853
310.1629587
310.2062959
310.2193793
310.2021568
310.1541447
310.0762927
309.970331
309.838656
309.684218
309.5103988
309.3208859
309.1195474
308.91031
308.6970422
308.4834448
308.2729525
308.0686492
307.8731993
307.6887992
307.5171502
307.3594525
307.2164202
307.0883151
306.974995
306.8759742
306.7904896
306.7175696
306.6561009
306.604891
306.5627222
306.5283981
306.5007783
306.4788058
306.4615232
306.4480821
306.4377456
306.4298852
306.4239746
306.4195796
306.4163484
306.4139998
306.4123124
306.4111146
306.4102751
306.4096952
306.4093019
306.4090426
306.4088796
306.4087779
306.4086333
306.6186152
306.6310798
306.6560271
306.6942303
306.7465809
306.8142028
306.898404
307.0006246
307.1223747
307.2651634
307.4304159
307.6193836
307.8330492
308.0720332
308.3365056
308.6261091
308.9398959
309.2762807
309.6330121
310.0071619
310.3951339
310.7926914
311.1950068
311.5967335
311.9921045
312.375058
312.7393907
313.078934
313.3877498
313.6603316
313.8917997
314.0780787
314.2160359
314.3035496
314.3396439
314.324392
314.2586553
314.1431651
313.9803714
313.7729117
313.5238394
313.2366207
312.9151791
312.5639534
312.1879321
311.7926364
311.3840365
310.9684023
310.5521033
310.1413851
309.7421514
309.3597741
308.9989497
308.6636023
308.356835
308.0809216
307.8373311
307.6267791
307.4492979
307.3043217
307.1907797
307.1071954
307.0517865
307.0225659
307.0174365
307.0339356
307.0706987
307.1255975
307.1969314
307.2833607
307.3839059
307.4979694
307.6253241
307.7660595
307.9204823
308.088972
308.2718004
308.4689323
308.6798283
308.9032693
309.137228
309.3788107
309.624278
309.8691467
310.1083628
310.336528
310.5481558
310.7379338
310.9009685
311.0329955
311.1305501
311.1901435
311.2109724
311.1938886
311.1379349
311.0443858
310.915446
310.7541035
310.5639924
310.3492516
310.1143832
309.8641129
309.6032534
309.3365714
309.0686595
308.8038177
308.5459467
308.2984587
308.0642101
307.8454578
307.6438428
307.4603994
307.2955894
307.1493559
307.0211936
306.9102292
306.8153067
306.7350712
306.6680489
306.6127178
306.5675685
306.5311516
306.5021145
306.4792251
306.4613862
306.4476403
306.4371672
306.4292774
306.4234004
306.4190721
306.4159206
306.4136527
306.4120402
306.4109084
306.4101258
306.409595
306.4092454
306.4090265
306.4088938
306.4087349
306.6514658
306.6655754
306.6938276
306.7370547
306.7962264
306.8725593
306.9674657
307.0824993
307.2192923
307.3794843
307.5646389
307.7761536
308.0151652
308.2824552
308.578361
308.9026936
309.2546662
309.6328332
310.0350394
310.4583802
310.8991747
311.3529544
311.8144744
312.2777555
312.7361653
313.1825462
313.609396
314.0090968
314.3741857
314.697655
314.9732611
315.1958229
315.361473
315.4678258
315.5140483
315.5009927
315.4307064
315.3039512
315.1249815
314.8973869
314.6248669
314.3111643
313.9601379
313.5759197
313.1630954
312.7268435
312.2729832
311.8079087
311.3384122
310.8714325
310.413777
309.9718589
309.5514804
309.1576719
308.7945897
308.4654651
308.1725964
307.9173765
307.7003484
307.5212843
307.3792822
307.272878
307.2001672
307.1589365
307.146794
307.1609287
307.1995847
307.260667
307.3421863
307.4428013
307.561678
307.6985063
307.85346
308.0270929
308.2201682
308.4334305
308.6673386
308.9217883
309.1958561
309.4875893
309.7938791
310.1104432
310.4319171
310.7520499
311.0639801
311.3605644
311.6347223
311.8797654
312.089685
312.2593808
312.3848277
312.4618704
312.4898469
312.4706471
312.4027752
312.2879754
312.1290636
311.9297433
311.6944466
311.4281785
311.1363662
310.824712
310.4990462
310.1651813
309.8287661
309.4951441
309.1692219
308.8553522
308.5572399
308.2778751
308.0194983
307.7835976
307.5709385
307.3816213
307.2151608
307.0705828
306.9465277
306.8413569
306.753255
306.6803216
306.6206518
306.572401
306.5338348
306.5033634
306.4795629
306.4611844
306.4471537
306.4365633
306.4286601
306.4228291
306.4185761
306.4155101
306.4133263
306.4117909
306.4107272
306.4100043
306.409527
306.4092268
306.4090469
306.4088662
306.6905445
306.7065505
306.7386122
306.7876261
306.8546465
306.9409919
307.0481916
307.1779311
307.3319919
307.5121822
307.7202583
307.957837
308.2263054
308.5267276
308.8597543
309.2255341
309.6236268
310.0529165
310.5115231
310.9967131
311.5048132
312.0311348
312.5699237
313.1143514
313.656567
314.187824
314.6986916
315.1793535
315.6199848
316.0111918
316.344497
316.6128378
316.8110246
316.9360853
316.9874239
316.9674816
316.8795771
316.7257777
316.5136194
316.2489487
315.9372304
315.5832765
315.1912626
314.7649782
314.3082213
313.8252187
313.3209572
312.8013309
312.2730736
311.7435126
311.2202255
310.7106789
310.2219034
309.7602341
309.3311239
308.9390252
308.5873293
308.2783544
308.0133742
307.7926811
307.6156828
307.4810242
307.386736
307.3304006
307.3093333
307.3204344
307.3613604
307.4302963
307.5249355
307.6440233
307.7869946
307.9539691
308.1456628
308.3632043
308.6078629
308.880708
309.1822347
309.5120007
309.8683114
310.2479935
310.6463061
311.0570046
311.4725479
311.8844279
312.2835818
312.6608426
313.0073778
313.315081
313.5768853
313.7869884
313.9409946
314.033903
314.0663405
314.0408637
313.9555904
313.8129278
313.6164455
313.3706587
313.0808575
312.7529505
312.3933184
312.0086706
311.6059002
311.1919321
310.7735653
310.3573101
309.949229
309.5547875
309.178725
308.8249548
308.4965001
308.1954695
307.9230748
307.6796846
307.4649115
307.2777231
307.1165665
306.9794999
306.8643214
306.7686885
306.6902238
306.6266014
306.5756163
306.5352326
306.5036151
306.4791456
306.4604247
306.4462654
306.4356782
306.4278524
306.4221339
306.4180039
306.4150569
306.4129809
306.4115397
306.4105576
306.4099067
306.4094949
306.4092492
306.409038
306.7356083
306.7537307
306.7900428
306.8455091
306.9212751
307.0187723
307.139665
307.2857983
307.4591449
307.6617435
307.8956285
308.1627524
308.4649019
308.8036101
309.1800628
309.5949983
310.0485948
310.5403416
311.0688903
311.6318887
312.2258056
312.8457599
313.4853822
314.136734
314.7903146
315.4351778
316.0591784
316.6493475
317.1923915
317.6753027
318.0860712
318.4144793
318.6529041
318.797
318.8460932
318.805648
318.678567
318.4714422
318.1968733
317.8652194
317.4858574
317.0664226
316.6125491
316.1280972
315.6157815
315.0780384
314.5178977
313.9396029
313.3488361
312.7525762
312.1587145
311.5755641
311.0113752
310.4739205
309.9701754
309.5060918
309.086454
308.7148028
308.3934183
308.1233549
307.9045269
307.7358396
307.6153637
307.5405477
307.5084602
307.5158024
307.5595024
307.6383268
307.7496711
307.8925092
308.0667126
308.2730029
308.5127804
308.7878235
309.0998772
309.4501708
309.8389227
310.264891
310.7250163
311.2142228
311.7254235
312.2497236
312.7768
313.2954111
313.7939744
314.2611491
314.6863626
315.0602397
315.37491
315.6241902
315.8036712
315.9072378
315.9389938
315.9007983
315.7909867
315.6128577
315.3708598
315.0703656
314.717509
314.3190481
313.8822407
313.4147241
312.9243863
312.4192235
311.9071803
311.3959739
310.892909
310.4046939
309.9372691
309.4956626
309.0838839
308.7048641
308.360447
308.0514303
307.7776511
307.5381087
307.331108
307.1544185
307.0054345
306.8813268
306.77918
306.6961084
306.6293482
306.576327
306.5347092
306.502422
306.4776633
306.4588966
306.4448352
306.4344206
306.4267958
306.4212787
306.4173343
306.4145502
306.412613
306.4112894
306.4104087
306.4098485
306.4095147
306.4092625
306.7863355
306.806764
306.8477064
306.9101989
306.995488
307.1051365
307.2409723
307.4050463
307.5995905
307.826971
308.0896333
308.3900402
308.7305994
309.1135809
309.5410181
310.0145859
310.5354458
311.1040518
311.7199126
312.3813152
313.0850258
313.8259965
314.5971115
315.3890191
316.1900859
316.9865031
317.7625593
318.501082
319.184039
319.7932987
320.311576
320.7235921
321.0173848
321.1855664
321.2261436
321.1494582
320.9537257
320.6549368
320.2729085
319.8259462
319.3309667
318.8017796
318.2481143
317.6754514
317.0857083
316.4786848
315.853856
315.2119244
314.5557361
313.8904884
313.2233881
312.5630079
311.9185662
311.2992689
310.7137771
310.1698097
309.6738665
309.2310522
308.8449859
308.5177875
308.250139
308.0414186
307.8899031
307.7930339
307.7477353
307.7506513
307.7979029
307.889213
308.0217592
308.1949435
308.4092834
308.6662855
308.968146
309.3172831
309.7157467
310.1645709
310.6631569
311.2087497
311.7960877
312.4173066
313.0621131
313.718205
314.3718865
315.0088008
315.6146925
316.1761131
316.6810062
317.1191302
317.4823062
317.7644928
317.961674
318.0665796
318.0899402
318.0301292
317.8870708
317.6651602
317.369795
317.0071765
316.5841795
316.1082544
315.5873469
315.0298194
314.4443593
313.8398641
313.2252965
312.6095089
312.0010418
311.4079064
310.8373674
310.295743
309.7882409
309.3188452
308.8902635
308.5039381
308.1601172
307.8579802
307.5957963
307.371109
307.1809303
307.0219309
306.8906149
306.7834713
306.6970984
306.6282991
306.5741465
306.5320243
306.4996437
306.475042
306.4565676
306.4428554
306.432796
306.4255027
306.4202782
306.4165829
306.4140061
306.4122408
306.4110621
306.4103087
306.4098599
306.4095542
306.8423206
306.8652186
306.9111185
306.9811353
307.0766334
307.1993368
307.3512865
307.5348132
307.7525145
308.0072306
308.3020135
308.6400848
309.0247792
309.4594642
309.9474272
310.491715
311.0949122
311.7588497
312.4842409
313.27026
314.1140891
315.0104784
315.9513759
316.9256822
317.9191653
318.9145659
319.8918917
320.8288868
321.7016527
322.4854437
323.1557315
323.6896969
324.068156
324.2776847
324.3120578
324.1874364
323.8912979
323.4527468
322.9017322
322.2690646
321.584546
320.8737269
320.1555668
319.4410291
318.7331439
318.0288615
317.3221872
316.6074655
315.8817845
315.1460571
314.4049441
313.6660661
312.9389443
312.2339637
311.5615013
310.9312562
310.3517642
309.8300657
309.3715017
308.9796232
308.6562094
308.4013936
308.2138944
308.0913434
308.030695
308.0287262
308.0808072
308.1880084
308.3474875
308.5593148
308.8248897
309.1466657
309.5276612
309.9707715
310.4779623
311.0494517
311.6829835
312.3732776
313.1117827
313.88678
314.6838243
315.486468
316.2771734
317.0382978
317.7530326
318.4061969
318.9848209
319.4784955
319.8795025
320.1827677
320.3840515
320.47761
320.482176
320.3895467
320.2033391
319.9291056
319.5731727
319.1424579
318.644385
318.0868448
317.4781762
316.8271479
316.1429229
315.4349938
314.7130755
313.9869501
313.2662657
312.5602967
311.8776809
311.2261584
310.6123342
310.0414912
309.5174705
309.0426294
308.6178789
308.2427958
307.9157873
307.6342956
307.3950262
307.1941798
307.027671
306.8913235
306.7810344
306.6929029
306.623324
306.5690482
306.5272127
306.4953469
306.4713605
306.4535167
306.4403979
306.4308666
306.424025
306.4191757
306.4157868
306.4134592
306.4119003
306.4108999
306.4103037
306.4099293
306.9030772
306.9285899
306.9797393
307.0577322
307.1640805
307.3007197
307.4699821
307.6745913
307.917668
308.2027365
308.533724
308.9149437
309.3510504
309.8469551
310.407679
311.0381265
311.7427608
312.5251731
313.3875526
314.3300837
315.3503234
316.4426316
317.5977203
318.8023814
320.0394223
321.2878152
322.5230207
323.7174258
324.840834
325.8610419
326.7447123
327.4589229
327.973582
328.264625
328.3161424
328.147283
327.7300851
327.1028488
326.3104092
325.4011992
324.4245346
323.4256128
322.441245
321.4957544
320.5986835
319.7459373
318.9244297
318.1183763
317.3146579
316.5058394
315.6908673
314.8742298
314.0644301
313.2723671
312.509929
311.7888906
311.1201023
310.5129198
309.9748276
309.5112307
309.1254028
308.8185901
308.590268
308.4385422
308.3606756
308.3536921
308.4127664
308.5403097
308.7340751
308.9949619
309.3254935
309.729158
310.2096625
310.7699738
311.4112786
312.1320109
312.9270584
313.7873001
314.6995913
315.6471906
316.6105833
317.5685936
318.4996381
319.3829613
320.1997058
320.9337175
321.5720326
322.1050567
322.5264945
322.8331731
323.0186068
323.0888903
323.0591882
322.9212424
322.681492
322.3467829
321.9242931
321.4214736
320.8460405
320.2060067
319.5097347
318.7659903
317.9839819
317.1733665
316.3442068
315.5068645
314.6718252
313.8494561
313.0497106
312.2818039
311.5538932
310.8727956
310.2437752
309.6704202
309.1546187
308.6966345
308.2952628
307.9480427
307.6515158
307.4015003
307.1933594
307.0222478
306.883324
306.7719225
306.6836831
306.6146386
306.561265
306.5205
306.489736
306.4667948
306.4498897
306.4375803
306.4287256
306.4224361
306.4180309
306.4149982
306.4129613
306.4116496
306.4108675
306.4104064
306.9680522
306.9963189
307.0530015
307.1394219
307.2572871
307.4088231
307.5967697
307.8244071
308.0955978
308.4148315
308.7872581
309.2186933
309.7155775
310.2848632
310.9338028
311.6696137
312.4989992
313.4275264
314.4588861
315.5940985
316.8307475
318.1623382
319.5778616
321.0616151
322.5932822
324.1482223
325.6978674
327.2100804
328.6493269
329.9766724
331.1499305
332.1246383
332.856273
333.3041418
333.4344888
333.2575847
332.7320988
331.8836923
330.7808788
329.4944835
328.0996565
326.6703679
325.27359
323.9607391
322.759619
321.671505
320.6763499
319.7438283
318.8442778
317.9557041
317.0663015
316.1738342
315.2834961
314.4054153
313.5524151
312.7382385
311.9762353
311.2784299
310.6548902
310.1133443
309.6590228
309.2947198
309.02107
308.8370276
308.7405189
308.7291842
308.7983692
308.9522578
309.1896455
309.5125353
309.9247438
310.4307222
311.0344747
311.7382897
312.5414857
313.4393236
314.4222693
315.4757912
316.5807281
317.7141868
318.8508605
319.9645928
321.0299777
322.0237916
322.9260991
323.7209451
324.3966197
324.9455401
325.3638066
325.6504062
325.7979081
325.831031
325.7495506
325.5530152
325.2495611
324.8472018
324.3537966
323.7771021
323.1248443
322.4048193
321.625016
320.7937463
319.9197679
319.0123814
318.0814764
317.1375074
316.1913778
315.2542283
314.3371311
313.4507154
312.6047617
311.8078097
311.0668256
310.386966
309.7714597
309.2216141
308.7369386
308.3153484
307.9534401
307.6468065
307.3903567
307.1786205
307.0060179
306.8670844
306.7566459
306.6699435
306.6027106
306.5512101
306.5122376
306.4831001
306.4615765
306.4458679
306.4345424
306.4264804
306.4208213
306.4169163
306.4142867
306.4125884
306.411575
306.4110059
307.0366491
307.067821
307.1303494
307.2257099
307.3558772
307.5234813
307.7318338
307.9849926
308.2878473
308.6462051
309.0668546
309.5575819
310.1271078
310.7849097
311.5408942
312.4048867
313.3859326
314.4914318
315.726173
317.0913691
318.5838218
320.1953349
321.9124634
323.7166159
325.5844564
327.4884825
329.3975883
331.2773536
333.0897798
334.7923886
336.3370634
337.6695326
338.7299392
339.456215
339.7869073
339.6888775
339.1308255
338.0713402
336.6153694
334.8623457
332.9164314
330.8880784
328.888396
327.016104
325.3389646
323.8789467
322.6136807
321.4941662
320.4657439
319.4828675
318.5154297
317.5489573
316.5817115
315.6209016
314.6791818
313.7718515
312.9147836
312.1229567
311.4094517
310.7848189
310.2567646
309.8301422
309.507239
309.2883385
309.1725061
309.1584946
309.2422213
309.430384
309.7231143
310.1238357
310.6376896
311.2697564
312.023573
312.8995583
313.8935923
314.9959362
316.1907713
317.4564476
318.7664162
320.0907431
321.39801
322.6573466
323.8403182
324.9224345
325.8841327
326.7111961
327.394665
327.9303676
328.3182216
328.5536794
328.6463742
328.6233614
328.4731936
328.2052983
327.8290323
327.3533107
326.7864561
326.1363035
325.4103302
324.6158102
323.7599928
322.850302
321.8945447
320.901109
319.8791226
318.8385418
317.7901368
316.7453504
315.7160204
314.7139811
313.7505816
312.8361793
311.9796679
311.1880952
310.4664133
309.8173789
309.2416085
308.7377505
308.3027567
307.9322282
307.6207866
307.3624397
307.1509166
306.9799564
306.843539
306.7360579
306.6524336
306.588177
306.5394093
306.5028483
306.4757711
306.4559609
306.4416449
306.4314309
306.4242453
306.4192757
306.4159211
306.4137489
306.4124516
306.4117499
307.1082604
307.1425226
307.2112857
307.3162361
307.4597185
307.6449234
307.8759496
308.1579137
308.4970805
308.9009848
309.3785118
309.9398962
310.596594
311.3609784
312.2458182
313.2635171
314.4251301
315.7392225
317.2106923
318.8397155
320.6209858
322.5433843
324.5901389
326.7394295
328.9653038
331.2386933
333.5282624
335.8007361
338.020279
340.1466975
342.1327937
343.9216905
345.4437294
346.6172136
347.3491042
347.4993119
347.071231
345.8870965
344.0841729
341.8128649
339.2014595
336.4019921
333.5781949
330.8988919
328.5071433
326.4761796
324.794865
323.3934154
322.1815529
321.0777902
320.0230283
318.9826365
317.9426481
316.9041141
315.8777348
314.8795462
313.9277382
313.040411
312.2340459
311.5225204
310.9165778
310.4237127
310.0484527
309.7930025
309.6581745
309.6444678
309.7488366
309.9814744
310.3439865
310.8414916
311.4802477
312.2652485
313.1983149
314.2762724
315.4894787
316.8210145
318.2467553
319.73629
321.2545999
322.764302
324.228165
325.611549
326.8844389
328.0228313
329.0093812
329.8333532
330.4900346
330.979828
331.304827
331.4616453
331.4888247
331.3841206
331.1508427
330.8007091
330.3443387
329.7913398
329.1502993
328.4289451
327.6343126
326.7729265
325.851016
324.8747655
323.8505988
322.785478
321.6871861
320.5645543
319.4275864
318.2874354
317.1562015
316.0465489
314.9711787
313.9422186
312.970604
312.0655289
311.2340265
310.4807213
309.8077723
309.2149825
308.7000342
308.258849
307.8860015
307.5751473
307.319429
307.1118371
306.945509
306.8139603
306.7112455
306.6320573
306.5717705
306.5264425
306.4927809
306.46809
306.4502033
306.437412
306.4283926
306.4221408
306.417911
306.4151656
306.4135244
306.4126619
307.1823062
307.2199035
307.2954195
307.4108308
307.5689894
307.7738456
308.0305526
308.3456207
308.7270854
309.184649
309.7297471
310.375481
311.1363567
312.0277711
313.0652089
314.2631519
315.6337641
317.1854816
318.9217021
320.8397969
322.9306433
325.1787974
327.5632977
330.0589583
332.637915
335.271151
337.9297059
340.5851956
343.209148
345.7708319
348.2338881
350.5521494
352.6613511
354.4746631
355.8688712
356.6318887
356.5815065
355.462084
353.3757543
350.5894211
347.2353288
343.5275026
339.6606404
335.8838744
332.4699033
329.5983509
327.296977
325.4775842
324.0015178
322.7350025
321.5756639
320.4581032
319.3489797
318.238732
317.1335468
316.0488962
315.0047908
314.022457
313.1220831
312.3213588
311.6346502
311.0727354
310.6430605
310.3504602
310.1982304
310.1893708
310.3225037
310.6123761
311.0620378
311.6784435
312.4683951
313.4355759
314.5782677
315.8873881
317.3452564
318.9254096
320.5934708
322.3089618
324.0278719
325.7056788
327.3004224
328.7753938
330.1010757
331.2561432
332.2275264
333.0097042
333.6034866
334.0145851
334.2397242
334.3106338
334.2467597
334.0437619
333.715598
333.2751317
332.7338252
332.1017052
331.3874362
330.5985016
329.7413747
328.8217034
327.8445357
326.8146005
325.7366469
324.6158299
323.4581127
322.2706437
321.0620457
319.8425507
318.6239196
317.4191236
316.2418163
315.1056555
314.0235591
313.0069826
312.0653064
311.2053991
310.431399
309.7447178
309.1442027
308.6264766
308.1863809
307.8174581
307.5124308
307.2636421
307.0634328
306.9044427
306.7798315
306.6834242
306.6097876
306.5542528
306.5128932
306.482474
306.4603817
306.4445445
306.4333516
306.4255756
306.420303
306.4168732
306.4148205
306.4137655
307.2582739
307.2995378
307.3825094
307.50956
307.6842192
307.9114388
308.1977376
308.5513917
308.9826217
309.5037216
310.1290586
310.8748689
311.7587752
312.7989664
314.0130243
315.4164459
317.0209956
318.8331046
320.8525923
323.0719777
325.4765717
328.0453959
330.7527998
333.5705088
336.4697726
339.4233115
342.4068151
345.3997175
348.3848429
351.3467014
354.2690995
357.1322195
359.900031
362.5122879
364.8658957
366.7332471
367.8961563
366.8074143
364.5917733
361.3341283
357.1533442
352.4982767
347.4353066
342.2468636
337.4345849
333.3831223
330.1999738
327.7857389
325.938567
324.4517983
323.1619165
321.9596698
320.7835519
319.6078401
318.4309202
317.2659173
316.1338529
315.0588875
314.0651109
313.1744608
312.4055137
311.7730189
311.2881031
310.9590549
310.7925207
310.7947256
310.9671829
311.3297292
311.8868564
312.6472218
313.6170935
314.7970139
316.1792499
317.74597
319.4687125
321.3091756
323.2211626
325.1534594
327.0533541
328.8703844
330.5597992
332.0852263
333.4202036
334.5484901
335.4633177
336.1658902
336.6634575
336.9566776
337.0697083
337.0427985
336.8652366
336.5537945
336.123775
335.5889129
334.9611381
334.2506074
333.4658727
332.6140509
331.7009767
330.7313696
329.709051
328.6372321
327.5188842
326.3571861
325.1560294
323.9205358
322.6575158
321.3757747
320.0861723
318.8013991
317.535499
316.3031927
315.1190699
313.9967322
312.9479894
311.9822052
311.1058698
310.3224416
309.6323906
309.0334711
308.521166
308.0892097
307.730135
307.4357952
307.1978285
307.0080405
306.8586967
306.7427262
306.6538418
306.5865923
306.5363581
306.4993081
306.472329
306.4529403
306.4392048
306.4296409
306.4231418
306.4189052
306.416367
306.4150846
307.3357552
307.3811291
307.4724948
307.6127456
307.8062897
308.0593551
308.3801641
308.77914
309.2690801
309.8652176
310.5850839
311.448077
312.4746566
313.6851236
315.0980113
316.7282132
318.5850789
320.6707927
322.9793759
325.4965857
328.2008293
331.0650016
334.0589613
337.1522418
340.3166029
343.5281401
346.7688197
350.0273494
353.2992135
356.5859751
359.8953993
363.2435888
366.6425192
370.0924859
373.5703448
377.0119362
378.7442957
378.5722562
377.2140436
374.067525
368.7650383
363.437116
357.2281947
350.2536436
343.5434838
337.9071324
333.5489478
330.3398208
327.9987382
326.2239835
324.771162
323.4729637
322.2302046
320.9949046
319.7539132
318.5158646
317.3017042
316.1381329
315.0532033
314.0734616
313.2222592
312.5190297
311.9794122
311.6160847
311.4400704
311.4612185
311.6863158
312.139563
312.8272293
313.7590338
314.9390122
316.3620606
318.0113248
319.8570697
321.8573505
323.9601371
326.1065491
328.2348692
330.2849588
332.2025558
333.9428307
335.472668
336.7714228
337.8302588
338.6504473
339.2410575
339.6059778
339.7616888
339.7709058
339.6177211
339.3203764
338.8973896
338.3649404
337.737127
337.025909
336.2412378
335.3913033
334.4826799
333.5204526
332.5083619
331.4490024
330.3441046
329.1949185
328.0027083
326.7693446
325.4979532
324.1935267
322.8633633
321.5171959
320.1670011
318.8265951
317.5110597
316.2360117
315.0167286
313.867215
312.7993356
311.8221408
310.9414806
310.1598751
309.4766514
308.8883476
308.3892482
307.9719838
307.6281326
307.3487745
307.124965
306.948111
306.8102442
306.7041968
306.623693
306.5633706
306.5187502
306.4861696
306.4626951
306.4460249
306.4343909
306.426468
306.421293
306.4181888
306.4166411
307.4144732
307.4645325
307.5655056
307.7209536
307.936386
308.2195978
308.5808543
309.0330796
309.5919625
310.2758815
311.1055389
312.103201
313.2914739
314.6916123
316.3214615
318.1932617
320.3116564
322.6723096
325.2614961
328.0568754
331.0294226
334.1462383
337.3737763
340.6809818
344.0419239
347.437709
350.8576852
354.3000573
357.7720197
361.2898814
364.8816724
368.5955652
372.4978186
376.7127487
381.5606437
364.5775614
360.3236973
361.4430228
362.4736854
362.9806063
368.5306305
376.2329927
369.512791
360.1625317
350.8056004
343.0972173
337.2858463
333.1095388
330.164657
328.038706
326.3909542
324.9844486
323.6742338
322.384584
321.0872167
319.7840483
318.494698
317.2478481
316.075437
315.0088858
314.0768378
313.3041249
312.7117769
312.3178755
312.138928
312.1890958
312.4824464
313.0467317