/*--------------------------------*- C++ -*----------------------------------*\
| =========                 |                                                 |
| \\      /  F ield         | OpenFOAM: The Open Source CFD Toolbox           |
|  \\    /   O peration     | Version:  2412                                  |
|   \\  /    A nd           | Website:  www.openfoam.com                      |
|    \\/     M anipulation  |                                                 |
\*---------------------------------------------------------------------------*/
FoamFile
{
    version     2.0;
    format      ascii;
    arch        "LSB;label=32;scalar=64";
    class       volVectorField;
    location    "0.05";
    object      U;
}
// * * * * * * * * * * * * * * * * * * * * * * * * * * * * * * * * * * * * * //

dimensions      [0 1 -1 0 0 0 0];

internalField   nonuniform List<vector> 
12008
(
(-9.286566421e-06 -2.473902601e-05 0)
(1.014332279e-05 -4.099143959e-05 0)
(5.360343112e-05 -4.330599685e-05 0)
(9.744143617e-05 -4.217368167e-05 0)
(0.0001327921473 -4.010577827e-05 0)
(0.0001581944619 -3.786394636e-05 0)
(0.0001737040186 -3.565276599e-05 0)
(0.0001795281458 -3.340870658e-05 0)
(0.0001755996263 -3.102998293e-05 0)
(0.0001615836511 -2.845541945e-05 0)
(0.0001370785537 -2.567204195e-05 0)
(0.0001018023012 -2.269801321e-05 0)
(5.572222923e-05 -1.957127974e-05 0)
(-8.769726534e-07 -1.634034507e-05 0)
(-6.736989218e-05 -1.305625721e-05 0)
(-0.0001427953177 -9.768064381e-06 0)
(-0.0002258804037 -6.521262158e-06 0)
(-0.0003150809578 -3.355480592e-06 0)
(-0.0004086375166 -3.021660135e-07 0)
(-0.0005046322827 2.62067399e-06 0)
(-0.0006011178445 5.411923721e-06 0)
(-0.0006961930438 8.085897229e-06 0)
(-0.0007881274992 1.067375822e-05 0)
(-0.000875468235 1.322197505e-05 0)
(-0.0009571314779 1.578748125e-05 0)
(-0.001032459559 1.842784909e-05 0)
(-0.001101233125 2.119298791e-05 0)
(-0.00116363272 2.411174217e-05 0)
(-0.001220146663 2.717938352e-05 0)
(-0.001271420796 3.034682862e-05 0)
(-0.001318092698 3.352186401e-05 0)
(-0.001360641058 3.656811282e-05 0)
(-0.001399217896 3.930198577e-05 0)
(-0.001433507711 4.150549673e-05 0)
(-0.001462735385 4.297424407e-05 0)
(-0.001485714266 4.352448108e-05 0)
(-0.001500922531 4.301259985e-05 0)
(-0.0015066682 4.135025285e-05 0)
(-0.00150128625 3.852602885e-05 0)
(-0.00148334013 3.460087478e-05 0)
(-0.001451791024 2.969788956e-05 0)
(-0.001406129268 2.400126316e-05 0)
(-0.001346460864 1.774289273e-05 0)
(-0.001273511789 1.118006843e-05 0)
(-0.001188553932 4.567254115e-06 0)
(-0.001093278725 -1.864348071e-06 0)
(-0.0009896481887 -7.925282288e-06 0)
(-0.0008797671813 -1.34736964e-05 0)
(-0.0007657456528 -1.842086923e-05 0)
(-0.0006496228092 -2.272195807e-05 0)
(-0.0005332836338 -2.636837636e-05 0)
(-0.0004184454138 -2.937847919e-05 0)
(-0.0003066336328 -3.178281434e-05 0)
(-0.0001991990337 -3.362478692e-05 0)
(-9.731903046e-05 -3.495085583e-05 0)
(-2.008904445e-06 -3.580841064e-05 0)
(8.587036964e-05 -3.624313387e-05 0)
(0.0001656020518 -3.629885985e-05 0)
(0.000236605072 -3.601696414e-05 0)
(0.0002984220443 -3.543649165e-05 0)
(0.0003506960441 -3.459383512e-05 0)
(0.0003931496647 -3.352250348e-05 0)
(0.0004255478181 -3.224878019e-05 0)
(0.0004476797031 -3.079938911e-05 0)
(0.0004593288255 -2.919938714e-05 0)
(0.0004602309103 -2.746383497e-05 0)
(0.0004500758315 -2.560542327e-05 0)
(0.0004285113669 -2.363048714e-05 0)
(0.0003951406392 -2.154407306e-05 0)
(0.0003495503563 -1.93477942e-05 0)
(0.0002913405514 -1.704167991e-05 0)
(0.0002201733588 -1.46250223e-05 0)
(0.0001358221432 -1.209937632e-05 0)
(3.823098671e-05 -9.471959112e-06 0)
(-7.242697459e-05 -6.758327676e-06 0)
(-0.0001957334634 -3.962974239e-06 0)
(-0.0003309987971 -1.064669576e-06 0)
(-0.0004773707241 1.971021923e-06 0)
(-0.0006338097345 5.101932079e-06 0)
(-0.0007988948712 8.214398718e-06 0)
(-0.000970668613 1.12018374e-05 0)
(-0.001146697793 1.396856835e-05 0)
(-0.001324151237 1.640733236e-05 0)
(-0.00149984108 1.840720606e-05 0)
(-0.001670279149 1.985835431e-05 0)
(-0.00183174512 2.065565679e-05 0)
(-0.001980367112 2.070527924e-05 0)
(-0.002112221385 1.993289261e-05 0)
(-0.002223455274 1.829026423e-05 0)
(-0.002310432976 1.576255133e-05 0)
(-0.002369888595 1.237187318e-05 0)
(-0.002399129923 8.182498988e-06 0)
(-0.002396187468 3.309783138e-06 0)
(-0.002359961249 -2.093797064e-06 0)
(-0.002290408419 -7.826161947e-06 0)
(-0.002188806333 -1.35740133e-05 0)
(-0.002057684707 -1.905888081e-05 0)
(-0.001900511093 -2.419222195e-05 0)
(-0.001721133449 -2.888948944e-05 0)
(-0.001523909589 -3.303733992e-05 0)
(-0.001313478379 -3.654527089e-05 0)
(-0.001094602201 -3.935373788e-05 0)
(-0.0008719983417 -4.143454241e-05 0)
(-0.0006501757422 -4.279058243e-05 0)
(-0.0004332887555 -4.345388859e-05 0)
(-0.0002250158592 -4.348200626e-05 0)
(-2.847110246e-05 -4.295180456e-05 0)
(0.0001538485122 -4.195362787e-05 0)
(0.0003200784202 -4.05843369e-05 0)
(0.0004689687426 -3.894090777e-05 0)
(0.0005998385933 -3.711509407e-05 0)
(0.0007125095287 -3.518990759e-05 0)
(0.0008072306625 -3.323765014e-05 0)
(0.0008845966131 -3.131981872e-05 0)
(0.0009454682371 -2.94832753e-05 0)
(0.0009908828965 -2.775150911e-05 0)
(0.001021977406 -2.61342197e-05 0)
(0.001039928177 -2.464548373e-05 0)
(0.001045931006 -2.329749356e-05 0)
(0.00104117488 -2.209526692e-05 0)
(0.001026812002 -2.103775856e-05 0)
(0.001003936468 -2.011991688e-05 0)
(0.0009735708729 -1.933330993e-05 0)
(0.0009366573784 -1.866803157e-05 0)
(0.0008940594267 -1.811361891e-05 0)
(0.0008465661074 -1.766091871e-05 0)
(0.0007949049506 -1.730290095e-05 0)
(0.0007397584849 -1.703464468e-05 0)
(0.0006817814987 -1.685443105e-05 0)
(0.000621612187 -1.676297923e-05 0)
(0.0005598782688 -1.676094313e-05 0)
(0.0004971815297 -1.684487903e-05 0)
(0.0004340660546 -1.700598505e-05 0)
(0.00037097485 -1.723405583e-05 0)
(0.0003082269811 -1.753705545e-05 0)
(0.0002460697453 -1.797557741e-05 0)
(0.0001849261678 -1.870584185e-05 0)
(0.0001261166173 -1.994282325e-05 0)
(7.231879918e-05 -2.157599068e-05 0)
(2.248811987e-05 -1.550591322e-05 0)
(-1.381723033e-05 -8.285237645e-05 0)
(1.950871572e-05 -0.0001494521495 0)
(7.948223574e-05 -0.0001627960832 0)
(0.0001354423848 -0.0001525920037 0)
(0.0001722950224 -0.0001337978918 0)
(0.0001861754295 -0.0001128140492 0)
(0.0001763012923 -9.153370047e-05 0)
(0.0001425322618 -6.993126462e-05 0)
(8.449284626e-05 -4.755824572e-05 0)
(1.548921848e-06 -2.417594192e-05 0)
(-0.0001068362445 9.446882546e-08 0)
(-0.0002407319476 2.483419767e-05 0)
(-0.0003994410672 4.943349709e-05 0)
(-0.0005813706424 7.319504759e-05 0)
(-0.0007840155505 9.540803439e-05 0)
(-0.001003951142 0.0001153899163 0)
(-0.001236925816 0.0001325237713 0)
(-0.00147798598 0.0001462912121 0)
(-0.001721649539 0.0001563086356 0)
(-0.001962121591 0.0001623663581 0)
(-0.0021935556 0.0001644559834 0)
(-0.002410344451 0.0001627872032 0)
(-0.002607420883 0.0001577871454 0)
(-0.002780538232 0.0001500766948 0)
(-0.002926508002 0.0001404228694 0)
(-0.003043348082 0.0001296565088 0)
(-0.003130327731 0.0001185889843 0)
(-0.003187899739 0.0001079083173 0)
(-0.003217508233 9.808586545e-05 0)
(-0.003221272562 8.93005077e-05 0)
(-0.003201650869 8.144500359e-05 0)
(-0.003161133293 7.413373664e-05 0)
(-0.00310190965 6.671422853e-05 0)
(-0.003025579766 5.838255154e-05 0)
(-0.002933135174 4.83988569e-05 0)
(-0.002825022591 3.615646301e-05 0)
(-0.002701242164 2.124496272e-05 0)
(-0.00256157233 3.533481603e-06 0)
(-0.002405841828 -1.676416209e-05 0)
(-0.002234162749 -3.913662395e-05 0)
(-0.002047175515 -6.283907538e-05 0)
(-0.001846134194 -8.697164107e-05 0)
(-0.001632927284 -0.000110584845 0)
(-0.001409984241 -0.0001328004918 0)
(-0.001180056524 -0.0001529247045 0)
(-0.0009459833721 -0.0001704867007 0)
(-0.0007104573873 -0.0001852307397 0)
(-0.0004759266029 -0.0001970922344 0)
(-0.0002444579206 -0.0002061386314 0)
(-1.783352331e-05 -0.0002125201687 0)
(0.0002025430027 -0.0002164216771 0)
(0.000415356868 -0.000218022196 0)
(0.0006195009168 -0.0002174793926 0)
(0.0008138672023 -0.0002149199181 0)
(0.0009973143587 -0.0002104465908 0)
(0.001168652508 -0.0002041551534 0)
(0.001326653099 -0.0001961424857 0)
(0.001470075798 -0.0001865149941 0)
(0.001597698255 -0.0001753846585 0)
(0.001708339676 -0.0001628636984 0)
(0.001800865126 -0.0001490522519 0)
(0.001874169265 -0.0001340291914 0)
(0.00192713979 -0.0001178410877 0)
(0.001958636362 -0.0001005006977 0)
(0.001967437123 -8.199019568e-05 0)
(0.001952142848 -6.225476171e-05 0)
(0.00191122814 -4.124021923e-05 0)
(0.001843053943 -1.889232561e-05 0)
(0.001745877526 4.822190732e-06 0)
(0.001617929054 2.989407496e-05 0)
(0.001457508289 5.6251913e-05 0)
(0.0012631087 8.374685382e-05 0)
(0.001033556251 0.0001121394304 0)
(0.0007681544022 0.0001410918643 0)
(0.0004668286153 0.0001701665739 0)
(0.0001301368354 0.000198847386 0)
(-0.0002402614291 0.0002266474771 0)
(-0.0006422303916 0.0002532895558 0)
(-0.001072862143 0.0002781618409 0)
(-0.001528118671 0.0003002167512 0)
(-0.002002573768 0.0003183879519 0)
(-0.002489569252 0.0003316981943 0)
(-0.002981396036 0.0003392349949 0)
(-0.003469416665 0.0003401818183 0)
(-0.003944245407 0.0003338454914 0)
(-0.004395965331 0.00031968664 0)
(-0.00481437895 0.0002973616311 0)
(-0.005189307071 0.0002667703831 0)
(-0.005510932625 0.0002281007828 0)
(-0.005770180929 0.0001818667428 0)
(-0.005959113074 0.0001289330355 0)
(-0.006071376904 7.052795406e-05 0)
(-0.006102570203 8.228395777e-06 0)
(-0.006050551583 -5.606307283e-05 0)
(-0.005915781965 -0.0001200916558 0)
(-0.00570205319 -0.0001813340923 0)
(-0.005415368921 -0.0002377531426 0)
(-0.005063625574 -0.0002880306529 0)
(-0.004656506704 -0.0003311171051 0)
(-0.004204620885 -0.0003662301037 0)
(-0.003719221962 -0.0003929007833 0)
(-0.003211781457 -0.000410980257 0)
(-0.002693582824 -0.0004206309698 0)
(-0.002175342238 -0.0004223049458 0)
(-0.001666871991 -0.0004167047219 0)
(-0.001176808953 -0.0004047300249 0)
(-0.0007124215081 -0.0003874132586 0)
(-0.0002795047968 -0.000365852655 0)
(0.0001176386921 -0.0003411474215 0)
(0.0004761390819 -0.0003143417577 0)
(0.0007944369313 -0.0002863823188 0)
(0.00107211804 -0.000258090157 0)
(0.001309721068 -0.0002301477649 0)
(0.00150854666 -0.0002031017877 0)
(0.001670469234 -0.0001773532401 0)
(0.00179770717 -0.0001531588669 0)
(0.001892775485 -0.0001306534231 0)
(0.001958253113 -0.0001099210919 0)
(0.00199673969 -9.099736849e-05 0)
(0.002010794888 -7.386755538e-05 0)
(0.002002883145 -5.847694904e-05 0)
(0.0019753362 -4.474303477e-05 0)
(0.001930332455 -3.256632164e-05 0)
(0.00186988763 -2.183889717e-05 0)
(0.001795863249 -1.245593189e-05 0)
(0.001709969309 -4.32700869e-06 0)
(0.001613805136 2.613958871e-06 0)
(0.001508892642 8.404225602e-06 0)
(0.001396708358 1.305739434e-05 0)
(0.001278707625 1.657771854e-05 0)
(0.001156316324 1.898292102e-05 0)
(0.001030890491 2.034010413e-05 0)
(0.0009036322523 2.079474899e-05 0)
(0.0007754830359 2.056424821e-05 0)
(0.0006470502548 1.984963112e-05 0)
(0.0005186455744 1.860914264e-05 0)
(0.0003906745488 1.61645433e-05 0)
(0.0002644344692 1.087141614e-05 0)
(0.0001451738705 5.781733349e-07 0)
(3.955556854e-05 -8.817880026e-06 0)
(-1.398554167e-05 -0.0001390917445 0)
(1.178870371e-05 -0.0002527092891 0)
(5.472581525e-05 -0.0002711881789 0)
(8.624203885e-05 -0.0002441257476 0)
(9.121603731e-05 -0.0001989502924 0)
(6.520066992e-05 -0.0001483239644 0)
(6.970635122e-06 -9.63889101e-05 0)
(-8.383462733e-05 -4.347951445e-05 0)
(-0.0002076843146 1.099397283e-05 0)
(-0.0003650460202 6.719945673e-05 0)
(-0.0005559893271 0.0001245333298 0)
(-0.0007797134748 0.0001817155719 0)
(-0.001034203179 0.0002370367685 0)
(-0.001316064215 0.0002885980424 0)
(-0.001620490894 0.0003344856599 0)
(-0.00194134126 0.0003728975516 0)
(-0.002271300656 0.00040224788 0)
(-0.002602117247 0.0004212611797 0)
(-0.00292490551 0.0004290670117 0)
(-0.003230519066 0.0004252886853 0)
(-0.003509976844 0.0004101136686 0)
(-0.003754927171 0.000384332971 0)
(-0.00395811178 0.0003493220504 0)
(-0.004113782028 0.0003069687508 0)
(-0.004218043971 0.0002595481618 0)
(-0.004269056435 0.0002095033181 0)
(-0.004267073993 0.0001592489447 0)
(-0.004214313762 0.000110897976 0)
(-0.004114642718 6.602853147e-05 0)
(-0.003973061807 2.552731636e-05 0)
(-0.003795231626 -1.039805417e-05 0)
(-0.003586975972 -4.218924009e-05 0)
(-0.003353788706 -7.091318505e-05 0)
(-0.003100409729 -9.79946009e-05 0)
(-0.002830784277 -0.0001247817437 0)
(-0.002548081881 -0.0001523874679 0)
(-0.002254831919 -0.0001815917176 0)
(-0.001953155728 -0.0002126838017 0)
(-0.001645022172 -0.0002453476484 0)
(-0.00133248541 -0.0002787475203 0)
(-0.001017806824 -0.0003117420008 0)
(-0.0007035897411 -0.0003430241095 0)
(-0.0003927106049 -0.000371324329 0)
(-8.814822953e-05 -0.0003956539194 0)
(0.0002074038808 -0.0004154654381 0)
(0.0004917298196 -0.0004306637738 0)
(0.0007635138004 -0.0004415074088 0)
(0.001022182265 -0.0004484565096 0)
(0.001267907189 -0.00045204083 0)
(0.001501403511 -0.0004527464897 0)
(0.001723703885 -0.000450921459 0)
(0.001935851138 -0.0004467240519 0)
(0.002138654334 -0.0004401311949 0)
(0.002332476658 -0.0004309737295 0)
(0.002517133392 -0.0004190103676 0)
(0.002691874216 -0.0004039976458 0)
(0.002855438515 -0.0003857456362 0)
(0.003006156546 -0.0003641423726 0)
(0.003142066054 -0.0003391561977 0)
(0.003261015511 -0.0003108097371 0)
(0.003360737528 -0.0002791486522 0)
(0.003438882823 -0.0002442007734 0)
(0.003493013809 -0.0002059499423 0)
(0.003520601915 -0.0001643056014 0)
(0.003518942793 -0.0001191044363 0)
(0.003485128675 -7.014286562e-05 0)
(0.003416039801 -1.720687262e-05 0)
(0.003308400807 3.987441867e-05 0)
(0.003158809994 0.0001011962863 0)
(0.002963854141 0.0001667124897 0)
(0.002720264637 0.0002361810909 0)
(0.002425108802 0.000309123285 0)
(0.002076003722 0.0003847962742 0)
(0.001671334104 0.0004621865486 0)
(0.001210459874 0.0005400183008 0)
(0.0006939232676 0.0006167634605 0)
(0.0001232474411 0.0006908635161 0)
(-0.0004983978967 0.0007610273412 0)
(-0.001166342678 0.0008253347809 0)
(-0.001874294429 0.0008809985708 0)
(-0.002613613793 0.0009252256744 0)
(-0.00337381964 0.0009554865971 0)
(-0.004142838475 0.0009694773183 0)
(-0.004907163869 0.0009652048787 0)
(-0.005652158585 0.0009410643259 0)
(-0.006362421967 0.0008959264183 0)
(-0.00702221884 0.0008292389546 0)
(-0.007615978857 0.0007411299885 0)
(-0.008128850664 0.0006324989617 0)
(-0.008547290583 0.0005050831873 0)
(-0.008859647156 0.0003614896451 0)
(-0.00905679484 0.0002051970238 0)
(-0.009132626876 4.047383249e-05 0)
(-0.009084424754 -0.0001276596213 0)
(-0.008913397322 -0.0002934019906 0)
(-0.008625624848 -0.0004508668639 0)
(-0.008229408911 -0.0005952879976 0)
(-0.007736952997 -0.0007231985359 0)
(-0.0071622348 -0.0008318699012 0)
(-0.00652080237 -0.0009194409761 0)
(-0.005829150937 -0.0009848817101 0)
(-0.005104101357 -0.001027982954 0)
(-0.004362200962 -0.001049329426 0)
(-0.003619155539 -0.001050235253 0)
(-0.002889325007 -0.001032639128 0)
(-0.002185315058 -0.0009989613373 0)
(-0.001517688464 -0.000951936865 0)
(-0.0008948087833 -0.0008944412099 0)
(-0.0003228170743 -0.0008293243617 0)
(0.0001942726628 -0.0007592691889 0)
(0.0006543803593 -0.0006866832178 0)
(0.001057097655 -0.0006136299089 0)
(0.001403387915 -0.0005417976063 0)
(0.001695305318 -0.0004724978308 0)
(0.001935616955 -0.0004067032533 0)
(0.002127658676 -0.0003450347025 0)
(0.002275119614 -0.0002878066127 0)
(0.002381714009 -0.0002351763844 0)
(0.002451135621 -0.0001871664113 0)
(0.002486973262 -0.0001436820351 0)
(0.002492636739 -0.000104543618 0)
(0.002471316727 -6.951619947e-05 0)
(0.002425967295 -3.833401295e-05 0)
(0.00235930707 -1.072299309e-05 0)
(0.002273819044 1.357594867e-05 0)
(0.002171800458 3.477789886e-05 0)
(0.002055395709 5.303623766e-05 0)
(0.001926644979 6.843784864e-05 0)
(0.001787528951 8.101757903e-05 0)
(0.001639992805 9.079588415e-05 0)
(0.001485932893 9.78428912e-05 0)
(0.001327133557 0.0001023602482 0)
(0.001165150052 0.0001047482181 0)
(0.001001162598 0.000105600109 0)
(0.0008358838941 0.0001055132055 0)
(0.0006696170844 0.0001046068125 0)
(0.0005027302479 0.0001016315249 0)
(0.0003367844516 9.272932275e-05 0)
(0.0001793511984 7.079192657e-05 0)
(4.390507388e-05 2.959160759e-05 0)
(-1.513849268e-05 -0.0001885107373 0)
(-4.944852115e-06 -0.0003362963385 0)
(1.086892454e-05 -0.0003506055635 0)
(7.718037042e-06 -0.0002995013335 0)
(-2.71841805e-05 -0.0002215468282 0)
(-9.743141627e-05 -0.0001350332562 0)
(-0.0002038459201 -4.62051987e-05 0)
(-0.0003465427165 4.416560885e-05 0)
(-0.0005256206697 0.0001366136023 0)
(-0.0007409573051 0.000230951181 0)
(-0.0009916939654 0.000325720288 0)
(-0.001275718523 0.0004183597675 0)
(-0.001589315519 0.0005056178735 0)
(-0.00192701054 0.0005839622359 0)
(-0.00228158487 0.0006498993046 0)
(-0.002644229631 0.0007002154047 0)
(-0.003004812123 0.000732173704 0)
(-0.003352239828 0.0007436931603 0)
(-0.00367491544 0.0007335198511 0)
(-0.003961270873 0.0007013789083 0)
(-0.004200355318 0.0006480868797 0)
(-0.004382465627 0.0005756079384 0)
(-0.00449975044 0.0004869900026 0)
(-0.004546720662 0.0003862049897 0)
(-0.004520672764 0.000277912279 0)
(-0.004421832843 0.0001670173821 0)
(-0.004253405332 5.832507297e-05 0)
(-0.004021213208 -4.400934273e-05 0)
(-0.003733268627 -0.000136906071 0)
(-0.003398710437 -0.0002184859019 0)
(-0.003027509059 -0.0002880648523 0)
(-0.002629486011 -0.0003462588249 0)
(-0.002213583049 -0.0003948548905 0)
(-0.001787455388 -0.0004363173438 0)
(-0.00135742878 -0.0004729893851 0)
(-0.000928240985 -0.0005068332528 0)
(-0.0005037166363 -0.0005392097092 0)
(-8.697885039e-05 -0.0005706940783 0)
(0.0003190054941 -0.0006010591082 0)
(0.0007113620684 -0.0006294624965 0)
(0.001087447166 -0.000654642065 0)
(0.001444287231 -0.0006751453877 0)
(0.001778823698 -0.0006897521586 0)
(0.002088228805 -0.0006978717541 0)
(0.002370435375 -0.0006997418513 0)
(0.002624605043 -0.0006963398554 0)
(0.002851406247 -0.0006890913392 0)
(0.003052977191 -0.0006795180062 0)
(0.003232700978 -0.0006689736244 0)
(0.003394809493 -0.000658428194 0)
(0.00354388303 -0.0006483007805 0)
(0.003684279619 -0.0006384150853 0)
(0.003819636294 -0.0006280721868 0)
(0.003952488531 -0.0006162155103 0)
(0.004084078836 -0.0006016305816 0)
(0.004214334587 -0.0005831306565 0)
(0.004341985238 -0.0005597019962 0)
(0.004464772266 -0.000530576041 0)
(0.004579694805 -0.0004952372381 0)
(0.004683239269 -0.0004533761013 0)
(0.004771564013 -0.0004048120626 0)
(0.004840614756 -0.0003494098759 0)
(0.004886182252 -0.0002870046364 0)
(0.004903927687 -0.0002173342551 0)
(0.004889291874 -0.0001400335466 0)
(0.004837551893 -5.471063504e-05 0)
(0.004743726523 3.907352649e-05 0)
(0.004602673883 0.0001416317004 0)
(0.004409154392 0.0002531246555 0)
(0.004157960732 0.0003734231186 0)
(0.003844125291 0.0005020100781 0)
(0.003463166193 0.0006379033828 0)
(0.00301135782 0.0007796104356 0)
(0.002486000967 0.0009251223876 0)
(0.001885676789 0.001071948253 0)
(0.001210500738 0.001217190205 0)
(0.0004622309691 0.001357738845 0)
(-0.0003566862588 0.001490702575 0)
(-0.001239223354 0.001611652173 0)
(-0.002177068219 0.001715289403 0)
(-0.0031585707 0.001796455229 0)
(-0.004169624018 0.001850451127 0)
(-0.005194025314 0.001873039811 0)
(-0.006213619905 0.001860613022 0)
(-0.007208732151 0.001810357474 0)
(-0.008158697255 0.001720434543 0)
(-0.009042486207 0.001590167204 0)
(-0.009839420203 0.001420209989 0)
(-0.01052994029 0.001212682621 0)
(-0.01109639454 0.0009712459473 0)
(-0.01152378661 0.0007011154447 0)
(-0.01180056746 0.0004090170422 0)
(-0.01191919689 0.0001030027558 0)
(-0.01187646776 -0.0002076393603 0)
(-0.01167465292 -0.0005123288423 0)
(-0.01132132104 -0.0008007785603 0)
(-0.01082769726 -0.001064741736 0)
(-0.01020921719 -0.001297841011 0)
(-0.009483694035 -0.001495224987 0)
(-0.008671068425 -0.001653565361 0)
(-0.007792599832 -0.001771043541 0)
(-0.006870088498 -0.001847352678 0)
(-0.005925079026 -0.00188365434 0)
(-0.00497809118 -0.00188246199 0)
(-0.004047925128 -0.001847444413 0)
(-0.003151087157 -0.001783160502 0)
(-0.002301374938 -0.001694745888 0)
(-0.001509643642 -0.001587584011 0)
(-0.0007837568134 -0.001466992879 0)
(-0.0001287093511 -0.001337955347 0)
(0.0004531080629 -0.001204914435 0)
(0.0009615419628 -0.001071642942 0)
(0.00139824559 -0.0009411831897 0)
(0.001766302802 -0.0008158387091 0)
(0.002069627057 -0.0006973181798 0)
(0.00231288269 -0.000586684422 0)
(0.002501112337 -0.0004844193129 0)
(0.002639279759 -0.0003906967136 0)
(0.002732239822 -0.0003054374307 0)
(0.002784626674 -0.0002283657411 0)
(0.002800764489 -0.000159074159 0)
(0.002784634696 -9.707609076e-05 0)
(0.00273986928 -4.184978151e-05 0)
(0.002669760636 7.123831091e-06 0)
(0.002577289383 5.031927484e-05 0)
(0.002465180607 8.812267832e-05 0)
(0.002335955337 0.0001208074913 0)
(0.002191995284 0.0001485328809 0)
(0.002035595855 0.0001713717482 0)
(0.001868994936 0.0001893793876 0)
(0.001694359721 0.0002027058384 0)
(0.001513716236 0.0002117334089 0)
(0.001328821108 0.0002171894425 0)
(0.001141004087 0.0002201282677 0)
(0.0009510854582 0.0002216155372 0)
(0.0007594962272 0.0002218963435 0)
(0.000566877022 0.0002188217681 0)
(0.0003755677366 0.000205357767 0)
(0.0001956859364 0.0001667840018 0)
(4.52636817e-05 8.074052245e-05 0)
(-1.631114328e-05 -0.0002283273607 0)
(-2.098999662e-05 -0.0003964061382 0)
(-2.965522184e-05 -0.0003977250532 0)
(-6.294551892e-05 -0.0003172279797 0)
(-0.0001307957612 -0.0002031670771 0)
(-0.0002352779514 -7.854073388e-05 0)
(-0.0003762642608 4.874068694e-05 0)
(-0.0005531171655 0.0001775690425 0)
(-0.0007651130772 0.0003082633257 0)
(-0.001011105737 0.0004399995907 0)
(-0.001288929549 0.000570132436 0)
(-0.001594859677 0.0006944745394 0)
(-0.00192327216 0.0008079078337 0)
(-0.002266528133 0.0009049921281 0)
(-0.002615058573 0.0009804575661 0)
(-0.002957614555 0.001029586497 0)
(-0.003281655336 0.001048527591 0)
(-0.003573855832 0.001034577685 0)
(-0.00382072154 0.0009864405081 0)
(-0.004009290972 0.0009044449364 0)
(-0.00412788149 0.0007906909772 0)
(-0.004166879195 0.0006491157562 0)
(-0.00411948218 0.0004853391191 0)
(-0.003982254253 0.0003063376545 0)
(-0.003755623224 0.0001200735733 0)
(-0.003443814222 -6.527663824e-05 0)
(-0.003055134797 -0.00024190981 0)
(-0.002600519709 -0.0004030249612 0)
(-0.002094194654 -0.0005436773478 0)
(-0.001550852554 -0.0006613559729 0)
(-0.0009848372691 -0.0007556192447 0)
(-0.0004093711936 -0.0008280586826 0)
(0.0001642636043 -0.0008818788074 0)
(0.0007267243545 -0.0009211074518 0)
(0.001270654961 -0.0009499505628 0)
(0.001792034326 -0.0009720859878 0)
(0.002287814132 -0.0009896833603 0)
(0.002755738655 -0.001003631677 0)
(0.003193805245 -0.001013759053 0)
(0.003599902768 -0.001019131037 0)
(0.00397164517 -0.001018247108 0)
(0.004306216363 -0.001009464158 0)
(0.004600483653 -0.0009916863283 0)
(0.004851523653 -0.0009650150504 0)
(0.005057517384 -0.0009310454202 0)
(0.005218605975 -0.0008926082608 0)
(0.005337356463 -0.0008531376859 0)
(0.005418723445 -0.0008160029757 0)
(0.005469738175 -0.0007839694363 0)
(0.005498843915 -0.0007587816702 0)
(0.005515086468 -0.0007408966515 0)
(0.005527112802 -0.0007294531156 0)
(0.005542301477 -0.0007224713046 0)
(0.005566104372 -0.0007172269342 0)
(0.00560169588 -0.0007106800876 0)
(0.005649939615 -0.0006998670812 0)
(0.005709566746 -0.0006822064293 0)
(0.005777526673 -0.0006556645912 0)
(0.005849418099 -0.0006187822607 0)
(0.005919896651 -0.0005705962389 0)
(0.005983020996 -0.0005104975625 0)
(0.006032497749 -0.0004380724954 0)
(0.006061842916 -0.000352948315 0)
(0.006064423765 -0.0002546635206 0)
(0.006033439125 -0.0001426581146 0)
(0.005962011194 -1.63423428e-05 0)
(0.005843020672 0.000124943118 0)
(0.005669229271 0.0002816428886 0)
(0.005433405803 0.0004539495573 0)
(0.005128422054 0.0006415798685 0)
(0.004747514562 0.0008436256772 0)
(0.004284562395 0.001058434505 0)
(0.003734391338 0.001283544401 0)
(0.003093073505 0.001515679444 0)
(0.002358201509 0.001750810837 0)
(0.001529180544 0.001984310724 0)
(0.0006074497349 0.002211298293 0)
(-0.0004053395313 0.00242645703 0)
(-0.001499769545 0.002621422541 0)
(-0.002665484365 0.002787582102 0)
(-0.00388783687 0.002916875661 0)
(-0.005149076617 0.003001801047 0)
(-0.006428736995 0.003035610761 0)
(-0.007703797738 0.003012614461 0)
(-0.008949277669 0.002928484816 0)
(-0.01013897083 0.002780573623 0)
(-0.01124630862 0.002568206974 0)
(-0.01224532079 0.002292923372 0)
(-0.0131116366 0.001958629801 0)
(-0.01382346944 0.001571656007 0)
(-0.01436250764 0.00114070593 0)
(-0.01471485005 0.0006767296567 0)
(-0.01487159781 0.0001925918103 0)
(-0.01482900188 -0.0002970939332 0)
(-0.01459061141 -0.0007758245863 0)
(-0.01416539019 -0.001227986861 0)
(-0.01356711967 -0.001641291457 0)
(-0.01281419042 -0.002005922894 0)
(-0.01192807857 -0.002314320603 0)
(-0.01093306314 -0.002561198365 0)
(-0.009855293233 -0.002743608461 0)
(-0.008721838412 -0.002860991403 0)
(-0.007559675075 -0.002915137166 0)
(-0.006394677423 -0.002910020522 0)
(-0.005250681244 -0.002851499583 0)
(-0.004148687523 -0.002746893852 0)
(-0.003106262528 -0.002604480849 0)
(-0.002137175717 -0.002432956359 0)
(-0.001251288772 -0.002240914439 0)
(-0.0004546861832 -0.002036395388 0)
(0.0002499875765 -0.001826538826 0)
(0.000863036902 -0.001617358965 0)
(0.001387121375 -0.001413640021 0)
(0.001826751107 -0.001218913144 0)
(0.002187398553 -0.001035774533 0)
(0.002475491148 -0.0008657833591 0)
(0.002697861282 -0.0007095151775 0)
(0.002861066322 -0.000567039461 0)
(0.002971415936 -0.0004380281146 0)
(0.003034816123 -0.0003218675419 0)
(0.003056670902 -0.0002177677195 0)
(0.003041863163 -0.0001248482884 0)
(0.002994764143 -4.220667515e-05 0)
(0.002919262352 3.102746287e-05 0)
(0.002818819453 9.562764319e-05 0)
(0.002696550335 0.0001522164891 0)
(0.002555289935 0.0002012371722 0)
(0.002397680562 0.0002429561116 0)
(0.002226237311 0.0002775102355 0)
(0.002043387719 0.0003050113384 0)
(0.001851465627 0.000325710354 0)
(0.00165264834 0.0003401922837 0)
(0.001448836003 0.0003495288636 0)
(0.001241510268 0.0003552365202 0)
(0.001031688743 0.0003587993332 0)
(0.0008201271062 0.0003604241857 0)
(0.0006080230358 0.0003566711357 0)
(0.0003986893013 0.0003365689851 0)
(0.0002042723218 0.0002765290506 0)
(4.570238531e-05 0.0001370398215 0)
(-1.705718422e-05 -0.0002604471196 0)
(-3.153809885e-05 -0.0004386673077 0)
(-5.591157027e-05 -0.0004210532977 0)
(-0.0001077365769 -0.0003082768376 0)
(-0.00019442612 -0.000157384666 0)
(-0.0003164214057 4.62936792e-06 0)
(-0.000472300505 0.0001685562582 0)
(-0.000660245506 0.0003329986456 0)
(-0.000878295182 0.000497944619 0)
(-0.001123900262 0.000661722066 0)
(-0.001393276021 0.0008202482657 0)
(-0.001680857448 0.000967465054 0)
(-0.001978984855 0.001096180738 0)
(-0.002277843299 0.001198909093 0)
(-0.00256562934 0.001268559866 0)
(-0.002828908348 0.001298984626 0)
(-0.003053133804 0.001285432009 0)
(-0.003223308906 0.001224948007 0)
(-0.003324772194 0.001116728932 0)
(-0.003344073809 0.0009623950946 0)
(-0.003269876165 0.0007661649481 0)
(-0.003093952103 0.0005349440679 0)
(-0.002812072877 0.0002780169973 0)
(-0.002424537018 6.438489314e-06 0)
(-0.001937015592 -0.0002677966652 0)
(-0.00135930959 -0.0005321849687 0)
(-0.0007083542661 -0.0007745314077 0)
(-3.311935482e-06 -0.0009854829006 0)
(0.0007365787499 -0.001159303914 0)
(0.001490518986 -0.00129357515 0)
(0.002239979862 -0.001389417623 0)
(0.002968876137 -0.001450781829 0)
(0.003664339516 -0.001483572728 0)
(0.004317394564 -0.001494744138 0)
(0.004922920003 -0.001491529915 0)
(0.005479459312 -0.001479946452 0)
(0.005987260652 -0.001463151089 0)
(0.00644697712 -0.001442060597 0)
(0.006858994981 -0.001416009945 0)
(0.007222901193 -0.001383287164 0)
(0.007537322041 -0.00134152295 0)
(0.007799664259 -0.001288277506 0)
(0.008006154999 -0.001222142275 0)
(0.008152701263 -0.001143862879 0)
(0.008236462738 -0.001056891454 0)
(0.008257414647 -0.0009668927962 0)
(0.008219209531 -0.0008805628732 0)
(0.008129211743 -0.0008042816255 0)
(0.007998401831 -0.0007431348073 0)
(0.007840304539 -0.0007002780496 0)
(0.007669605653 -0.0006764815621 0)
(0.007500506125 -0.0006699890638 0)
(0.007345435247 -0.0006768721997 0)
(0.00721393406 -0.0006917314059 0)
(0.007111881918 -0.0007085693049 0)
(0.007041542198 -0.0007215329753 0)
(0.007001794647 -0.0007254644742 0)
(0.006988651456 -0.0007162380219 0)
(0.006995930291 -0.0006908315428 0)
(0.007015922054 -0.0006472094359 0)
(0.007039959265 -0.0005840892894 0)
(0.007058853743 -0.0005006622485 0)
(0.007063219545 -0.0003963135162 0)
(0.007043509202 -0.0002704135639 0)
(0.0069902022 -0.000122273976 0)
(0.006893803426 4.885389429e-05 0)
(0.006744684964 0.0002437682039 0)
(0.006533218151 0.00046299415 0)
(0.006249951181 0.0007066735353 0)
(0.005885650351 0.0009742662442 0)
(0.005431600089 0.001264340945 0)
(0.004879884686 0.001574411662 0)
(0.004223694098 0.001900852596 0)
(0.003457617526 0.002238898589 0)
(0.002577928328 0.002582730691 0)
(0.001582937475 0.002925724018 0)
(0.0004727130988 0.003261012573 0)
(-0.0007510655039 0.003579280586 0)
(-0.002076127616 0.003866795118 0)
(-0.00349027417 0.004111142803 0)
(-0.004975525157 0.004300640754 0)
(-0.006510111793 0.004424195936 0)
(-0.008068667949 0.004471849831 0)
(-0.00962255143 0.004435282757 0)
(-0.01114067684 0.004308328894 0)
(-0.01259053153 0.004087472296 0)
(-0.01393934109 0.003772259591 0)
(-0.01515531779 0.003365588258 0)
(-0.01620890782 0.002873845893 0)
(-0.01707396327 0.002306891504 0)
(-0.01772874519 0.001677890117 0)
(-0.0181569862 0.001003058255 0)
(-0.01834846482 0.0003011313806 0)
(-0.01829880333 -0.0004068760847 0)
(-0.0180132854 -0.001097395786 0)
(-0.01750164053 -0.001748739734 0)
(-0.01678010807 -0.002344126622 0)
(-0.01586985327 -0.002869603969 0)
(-0.01479605832 -0.003314143011 0)
(-0.01358761937 -0.003669815773 0)
(-0.01227608972 -0.003932010369 0)
(-0.01089454029 -0.004099588836 0)
(-0.009476295388 -0.00417489306 0)
(-0.008053635439 -0.004163548839 0)
(-0.006656553039 -0.004074055218 0)
(-0.005311658335 -0.003917178908 0)
(-0.004041314759 -0.003705208718 0)
(-0.002863071689 -0.003451138457 0)
(-0.001789431811 -0.003167861782 0)